                  Welcome to Q-Chem
     A Quantum Leap Into The Future Of Chemistry


 Q-Chem 6.0 (devel), Q-Chem, Inc., Pleasanton, CA (2022)

 E. Epifanovsky,  A. T. B. Gilbert,  Xintian Feng,  Joonho Lee,  Yuezhi Mao,  
 N. Mardirossian,  P. Pokhilko,  A. White,  M. Wormit,  M. P. Coons,  
 A. L. Dempwolff,  Zhengting Gan,  D. Hait,  P. R. Horn,  L. D. Jacobson,  
 I. Kaliman,  J. Kussmann,  A. W. Lange,  Ka Un Lao,  D. S. Levine,  Jie Liu,  
 S. C. McKenzie,  A. F. Morrison,  K. Nanda,  F. Plasser,  D. R. Rehn,  
 M. L. Vidal,  Zhi-Qiang You,  Ying Zhu,  B. Alam,  B. Albrecht,  
 A. Aldossary,  E. Alguire,  J. H. Andersen,  V. Athavale,  D. Barton,  
 K. Begam,  A. Behn,  N. Bellonzi,  Y. A. Bernard,  E. J. Berquist,  
 H. Burton,  A. Carreras,  K. Carter-Fenk,  Romit Chakraborty,  
 Chandrima Chakravarty,  Junhan Chen,  A. D. Chien,  K. D. Closser,  
 V. Cofer-Shabica,  L. Cunha,  S. Dasgupta,  Jia Deng,  M. de Wergifosse,  
 M. Diedenhofen,  Hainam Do,  S. Ehlert,  Po-Tung Fang,  S. Fatehi,  
 Qingguo Feng,  T. Friedhoff,  B. Ganoe,  J. Gayvert,  Qinghui Ge,  
 G. Gidofalvi,  M. Goldey,  J. Gomes,  C. Gonzalez-Espinoza,  S. Gulania,  
 A. Gunina,  J. A. Gyamfi,  M. W. D. Hanson-Heine,  P. H. P. Harbach,  
 A. W. Hauser,  M. F. Herbst,  M. Hernandez Vera,  M. Hodecker,  
 Z. C. Holden,  S. Houck,  Xunkun Huang,  Kerwin Hui,  B. C. Huynh,  
 K. Ikeda,  M. Ivanov,  Hyunjun Ji,  Zuxin Jin,  Hanjie Jiang,  B. Kaduk,  
 S. Kaehler,  R. Kang,  K. Khistyaev,  Jaehoon Kim,  Yongbin Kim,  
 P. Klunzinger,  Z. Koczor-Benda,  Joong Hoon Koh,  D. Kosenkov,  
 Saikiran Kotaru,  L. Koulias,  T. Kowalczyk,  C. M. Krauter,  K. Kue,  
 A. Kunitsa,  T. Kus,  A. Landau,  K. V. Lawler,  D. Lefrancois,  S. Lehtola,  
 Rain Li,  Shaozhi Li,  Yi-Pei Li,  Jiashu Liang,  M. Liebenthal,  
 Hung-Hsuan Lin,  You-Sheng Lin,  Fenglai Liu,  Kuan-Yu Liu,  
 M. Loipersberger,  A. Luenser,  C. Malbon,  A. Manjanath,  P. Manohar,  
 E. Mansoor,  S. F. Manzer,  Shan-Ping Mao,  A. V. Marenich,  T. Markovich,  
 S. Mason,  F. Matz,  S. A. Maurer,  P. F. McLaughlin,  M. F. S. J. Menger,  
 J.-M. Mewes,  S. A. Mewes,  P. Morgante,  Mohammad Mostafanejad,  
 J. W. Mullinax,  K. J. Oosterbaan,  G. Paran,  V. Parravicini,  
 Alexander C. Paul,  Suranjan K. Paul,  F. Pavosevic,  Zheng Pei,  S. Prager,  
 E. I. Proynov,  E. Ramos,  B. Rana,  A. E. Rask,  A. Rettig,  R. M. Richard,  
 F. Rob,  E. Rossomme,  T. Scheele,  M. Scheurer,  M. Schneider,  
 P. E. Schneider,  N. Sergueev,  S. M. Sharada,  Hengyuan Shen,  
 W. Skomorowski,  D. W. Small,  C. J. Stein,  Yingli Su,  Yu-Chuan Su,  
 E. J. Sundstrom,  Zhen Tao,  J. Thirman,  Hung-Yi Tsai,  T. Tsuchimochi,  
 N. M. Tubman,  C. Utku,  S. P. Veccham,  O. Vydrov,  J. Wenzel,  
 Jonathan Wong,  J. Witte,  A. Yamada,  Chou-Hsun Yang,  Kun Yao,  
 S. Yeganeh,  S. R. Yost,  A. Zech,  F. Zeller,  Igor Ying Zhang,  
 Xing Zhang,  Yu Zhang,  D. Zuev,  A. Aspuru-Guzik,  A. T. Bell,  
 N. A. Besley,  K. B. Bravaya,  B. R. Brooks,  D. Casanova,  Jeng-Da Chai,  
 Hsing-Ta Chen,  S. Coriani,  C. J. Cramer,  A. E. DePrince, III,  
 R. A. DiStasio Jr.,  A. Dreuw,  B. D. Dunietz,  T. R. Furlani,  
 W. A. Goddard III,  S. Grimme,  S. Hammes-Schiffer,  T. Head-Gordon,  
 W. J. Hehre,  Chao-Ping Hsu,  T.-C. Jagau,  Yousung Jung,  A. Klamt,  
 Jing Kong,  D. S. Lambrecht,  Xiangyuan Li,  WanZhen Liang,  N. J. Mayhall,  
 C. W. McCurdy,  J. B. Neaton,  T. Neudecker,  C. Ochsenfeld,  
 J. A. Parkhill,  R. Peverati,  V. A. Rassolov,  Haisheng Ren,  Yihan Shao,  
 L. V. Slipchenko,  R. P. Steele,  J. E. Subotnik,  A. J. W. Thom,  
 A. Tkatchenko,  D. G. Truhlar,  T. Van Voorhis,  Fan Wang,  
 T. A. Wesolowski,  K. B. Whaley,  H. L. Woodcock III,  P. M. Zimmerman,  
 S. Faraji,  P. M. W. Gill,  M. Head-Gordon,  J. M. Herbert,  A. I. Krylov

 Contributors to earlier versions of Q-Chem not listed above: 
 R. D. Adamson,  B. Austin,  R. Baer,  J. Baker,  G. J. O. Beran,  
 K. Brandhorst,  S. T. Brown,  E. F. C. Byrd,  Arup K. Chakraborty,  
 G. K. L. Chan,  Chun-Min Chang,  Yunqing Chen,  C.-L. Cheng,  
 Siu Hung Chien,  D. M. Chipman,  D. L. Crittenden,  H. Dachsel,  
 R. J. Doerksen,  A. D. Dutoi,  R. G. Edgar,  J. Fosso-Tande,  
 L. Fusti-Molnar,  D. Ghosh,  A. Ghysels,  A. Golubeva-Zadorozhnaya,  
 J. Gonthier,  M. S. Gordon,  S. R. Gwaltney,  G. Hawkins,  J. E. Herr,  
 A. Heyden,  S. Hirata,  E. G. Hohenstein,  G. Kedziora,  F. J. Keil,  
 C. Kelley,  Jihan Kim,  R. A. King,  R. Z. Khaliullin,  P. P. Korambath,  
 W. Kurlancheek,  A. Laurent,  A. M. Lee,  M. S. Lee,  S. V. Levchenko,  
 Ching Yeh Lin,  D. Liotard,  E. Livshits,  R. C. Lochan,  I. Lotan,  
 L. A. Martinez-Martinez,  P. E. Maslen,  N. Nair,  D. P. O'Neill,  
 D. Neuhauser,  E. Neuscamman,  C. M. Oana,  R. Olivares-Amaya,  R. Olson,  
 T. M. Perrine,  B. Peters,  P. A. Pieniazek,  A. Prociuk,  Y. M. Rhee,  
 J. Ritchie,  M. A. Rohrdanz,  E. Rosta,  N. J. Russ,  H. F. Schaefer III,  
 M. W. Schmidt,  N. E. Schultz,  S. Sharma,  N. Shenvi,  C. D. Sherrill,  
 A. C. Simmonett,  A. Sodt,  T. Stein,  D. Stuck,  K. S. Thanthiriwatte,  
 V. Vanovschi,  L. Vogt,  Tao Wang,  A. Warshel,  M. A. Watson,  
 C. F. Williams,  Q. Wu,  X. Xu,  Jun Yang,  W. Zhang,  Yan Zhao

   Please cite Q-Chem as follows:
  "Software for the frontiers of quantum chemistry:
   An overview of developments in the Q-Chem 5 package"
   J. Chem. Phys. 155, 084801 (2021)
   https://doi.org/10.1063/5.0055522 (open access)

 Q-Chem 6.0.1 for Intel X86 EM64T Linux

 Parts of Q-Chem use Armadillo 9.900.5 (Nocturnal Misbehaviour).
 http://arma.sourceforge.net/

 Q-Chem begins on Tue Nov 15 14:28:21 2022  

orc29
 Host: 0

     Scratch files written to /scratch/madhubani/qchem3087//
 Processing $rem in /qcsoftware/qchem_latest/config/preferences:
 Processing $rem in /home/users/madhubani/.qchemrc:

 Checking the input file for inconsistencies... 	...done.

--------------------------------------------------------------
User input:
--------------------------------------------------------------
$molecule
0  1

C
C  1  r2
C  2  r3  1  a3
C  3  r4  2  a4  1  d4
C  4  r5  3  a5  2  d5
C  5  r6  4  a6  3  d6
C  6  r7  5  a7  4  d7
C  7  r8  6  a8  5  d8
C  8  r9  7  a9  6  d9
C  9  r10  8  a10  7  d10
C  10  r11  9  a11  8  d11
C  11  r12  10  a12  9  d12
C  12  r13  11  a13  10  d13
C  13  r14  12  a14  11  d14
C  14  r15  13  a15  12  d15
C  1  r16  2  a16  3  d16
C  1  r17  2  a17  3  d17
C  5  r18  4  a18  3  d18
C  9  r19  8  a19  7  d19
C  13  r20  12  a20  11  d20
H  2  r21  1  a21  3  d21
H  2  r22  1  a22  3  d22
H  3  r23  2  a23  1  d23
H  3  r24  2  a24  1  d24
H  4  r25  3  a25  2  d25
H  4  r26  3  a26  2  d26
H  7  r27  6  a27  5  d27
H  8  r28  7  a28  6  d28
H  10  r29  9  a29  8  d29
H  11  r30  10  a30  9  d30
H  12  r31  11  a31  10  d31
H  14  r32  13  a32  12  d32
H  16  r33  1  a33  2  d33
H  16  r34  1  a34  2  d34
H  16  r35  1  a35  2  d35
H  17  r36  1  a36  2  d36
H  17  r37  1  a37  2  d37
H  17  r38  1  a38  2  d38
H  18  r39  5  a39  4  d39
H  18  r40  5  a40  4  d40
H  18  r41  5  a41  4  d41
H  19  r42  9  a42  8  d42
H  19  r43  9  a43  8  d43
H  19  r44  9  a44  8  d44
H  20  r45  13  a45  12  d45
H  20  r46  13  a46  12  d46
H  20  r47  13  a47  12  d47
H  15  r48  14  a48  13  d48
O  15  r49  14  a49  13  d49

r2= 1.5555
r3= 1.5120
a3= 111.22
r4= 1.5243
a4= 108.46
d4=  64.30
r5= 1.5212
a5= 113.95
d5= 310.19
r6= 1.3832
a6= 122.07
d6=  19.01
r7= 1.5093
a7= 124.11
d7= 179.66
r8= 1.3496
a8= 125.32
d8= 323.81
r9= 1.5015
a9= 125.65
d9= 182.04
r10= 1.3560
a10= 117.08
d10= 177.86
r11= 1.4878
a11= 124.49
d11= 179.76
r12= 1.3459
a12= 120.32
d12= 180.59
r13= 1.4994
a13= 125.67
d13= 270.51
r14= 1.3544
a14= 117.15
d14= 180.51
r15= 1.4800
a15= 124.38
d15= 179.94
r16= 1.5489
a16= 105.91
d16= 192.61
r17= 1.5486
a17= 110.25
d17=  75.45
r18= 1.5173
a18= 112.48
d18= 202.33
r19= 1.5184
a19= 123.01
d19= 357.50
r20= 1.5176
a20= 122.92
d20=   0.48
r21= 1.1145
a21= 110.51
d21= 118.51
r22= 1.1125
a22= 110.22
d22= 236.78
r23= 1.1115
a23= 110.90
d23= 183.91
r24= 1.1090
a24= 110.22
d24= 303.00
r25= 1.1120
a25= 106.09
d25= 187.88
r26= 1.1118
a26= 110.96
d26=  71.48
r27= 1.0752
a27= 115.84
d27= 149.64
r28= 1.0829
a28= 118.30
d28= 359.05
r29= 1.0881
a29= 118.72
d29= 359.91
r30= 1.0776
a30= 118.73
d30=   0.44
r31= 1.0882
a31= 117.31
d31=  180
r32= 1.0877
a32= 119.34
d32= 359.99
r33= 1.1119
a33= 110.69
d33= 302.81
r34= 1.1096
a34= 112.08
d34= 183.40
r35= 1.1116
a35= 110.59
d35=  62.89
r36= 1.1086
a36= 111.64
d36= 294.56
r37= 1.1088
a37= 111.81
d37= 174.50
r38= 1.1113
a38= 110.59
d38=  55.22
r39= 1.1105
a39= 108.74
d39=  52.14
r40= 1.1101
a40= 110.00
d40= 293.65
r41= 1.1002
a41= 115.98
d41= 167.46
r42= 1.1016
a42= 114.91
d42= 359.49
r43= 1.1105
a43= 109.52
d43= 239.78
r44= 1.1106
a44= 109.60
d44= 119.93
r45= 1.1021
a45= 114.57
d45=   0.13
r46= 1.1105
a46= 109.60
d46= 239.98
r47= 1.1106
a47= 109.57
d47= 120.16
r48= 1.0841
a48= 121.70
d48=   0.03
r49= 1.2202
a49= 119.67
d49= 180.06
$end

$rem
   BASIS  = 6-31+G* 
   GUI  =  2
   JOB_TYPE  =  Optimization
   METHOD  =  wB97X-D
   SCF_CONVERGENCE  =  8
   MEM_TOTAL = 300000
   MEM_STATIC = 2000
$end
--------------------------------------------------------------
 ----------------------------------------------------------------
             Standard Nuclear Orientation (Angstroms)
    I     Atom           X                Y                Z
 ----------------------------------------------------------------
    1      C       4.1991155149    -0.5883248136     0.7460832545
    2      C       5.2430638381     0.4073561290     1.3277804343
    3      C       5.7283783539     1.3718600764     0.2693164735
    4      C       4.5503655951     2.2288806465    -0.1793394888
    5      C       3.3076506390     1.4296241729    -0.5411378680
    6      C       3.1222091597     0.1270147600    -0.1144501424
    7      C       1.9056388521    -0.7050224484    -0.4394997702
    8      C       0.6425999148    -0.2381993816    -0.5302137554
    9      C      -0.5783295913    -1.0660114923    -0.8105002172
   10      C      -1.7717819724    -0.4223332670    -0.8197606868
   11      C      -3.0808287372    -1.0784313535    -1.0833526216
   12      C      -4.2156671123    -0.3548371390    -1.0836446283
   13      C      -5.0817156467    -0.0863492339     0.1105390011
   14      C      -6.1955196586     0.6580902124    -0.0885838095
   15      C      -7.1612024891     1.0178848052     0.9736800570
   16      C       3.5528992876    -1.2877780418     1.9676645982
   17      C       4.9058138431    -1.6622037887    -0.1173537030
   18      C       2.3757009401     2.1922939623    -1.4641784093
   19      C      -0.5208697506    -2.5583790180    -1.0845003901
   20      C      -4.7584445462    -0.6091450624     1.4980872263
   21      H       4.7877596826     1.0206027351     2.1394065650
   22      H       6.0965188329    -0.1483479823     1.7755122319
   23      H       6.5245280142     2.0347551138     0.6719926932
   24      H       6.1568641843     0.8153117061    -0.5888995859
   25      H       4.9115737438     2.8171260231    -1.0511422476
   26      H       4.2599659019     2.9521529358     0.6135315308
   27      H       2.0688146419    -1.7652727015    -0.5122878350
   28      H       0.4695880139     0.8142864794    -0.3430966673
   29      H      -1.7900612438     0.6480631823    -0.6251356120
   30      H      -3.0995265099    -2.1386489423    -1.2752140764
   31      H      -5.1453907075    -0.8843809491    -1.2820800826
   32      H      -6.4181135001     1.0276261519    -1.0870759032
   33      H       4.3277599349    -1.7855914218     2.5906368495
   34      H       2.8273671242    -2.0706471260     1.6644629543
   35      H       3.0154449862    -0.5496444698     2.6016648062
   36      H       5.3734040575    -1.2187538253    -1.0194099548
   37      H       4.1985426563    -2.4421500954    -0.4650441790
   38      H       5.6974353239    -2.1763813097     0.4691141972
   39      H       2.9577702344     2.5575774131    -2.3365164099
   40      H       1.9519389948     3.0709854182    -0.9344151141
   41      H       1.5735753285     1.6032312712    -1.9332622922
   42      H       0.4909162620    -2.9938632212    -1.0716499616
   43      H      -0.9400360702    -2.7671745685    -2.0914334885
   44      H      -1.1165950854    -3.1007235968    -0.3200358433
   45      H      -3.8317439175    -1.2024718109     1.5598425858
   46      H      -5.5841397680    -1.2620254154     1.8519020021
   47      H      -4.6412788151     0.2441876875     2.1991776408
   48      H      -7.0253579389     0.6959117997     1.9999122197
   49      O      -8.1389978708     1.6935401466     0.6974662064
 ----------------------------------------------------------------
 Molecular Point Group                 C1    NOp =  1
 Largest Abelian Subgroup              C1    NOp =  1
 Nuclear Repulsion Energy =        1528.47468075 hartrees
 There are       78 alpha and       78 beta electrons
 Requested basis set is 6-31+G(d)
 There are 161 shells and 455 basis functions

 Total QAlloc Memory Limit 300000 MB
 Mega-Array Size      1956 MB
 MEM_STATIC part      2000 MB

 -----------------------------------------------------------------------
                STARTING GEOMETRY OPTIMIZER USING LIBOPT3
                by Peter F. McLaughlin, Yu Zhang, Evgeny Epifanovsky
 -----------------------------------------------------------------------

              Initial Energy and Gradient Calculation
   -- Checking Topology for Ill-Behaving Coordinates --

 -------------------------------------------
   Coordinate       |  Removed | Additions 
 -------------------------------------------
	Bonds                     0          0
	Angles                    0          0
	Torsions                  0          0
	Co-Linear Type5s          0          0
	Co-Linear Type6s          0          0
 -------------------------------------------
     Done Checking Topology
 ----------------------------------------------------------------
             Standard Nuclear Orientation (Angstroms)
    I     Atom           X                Y                Z
 ----------------------------------------------------------------
    1      C       4.1991155149    -0.5883248136     0.7460832545
    2      C       5.2430638381     0.4073561290     1.3277804343
    3      C       5.7283783539     1.3718600764     0.2693164735
    4      C       4.5503655951     2.2288806465    -0.1793394888
    5      C       3.3076506390     1.4296241729    -0.5411378680
    6      C       3.1222091597     0.1270147600    -0.1144501424
    7      C       1.9056388521    -0.7050224484    -0.4394997702
    8      C       0.6425999148    -0.2381993816    -0.5302137554
    9      C      -0.5783295913    -1.0660114923    -0.8105002172
   10      C      -1.7717819724    -0.4223332670    -0.8197606868
   11      C      -3.0808287372    -1.0784313535    -1.0833526216
   12      C      -4.2156671123    -0.3548371390    -1.0836446283
   13      C      -5.0817156467    -0.0863492339     0.1105390011
   14      C      -6.1955196586     0.6580902124    -0.0885838095
   15      C      -7.1612024891     1.0178848052     0.9736800570
   16      C       3.5528992876    -1.2877780418     1.9676645982
   17      C       4.9058138431    -1.6622037887    -0.1173537030
   18      C       2.3757009401     2.1922939623    -1.4641784093
   19      C      -0.5208697506    -2.5583790180    -1.0845003901
   20      C      -4.7584445462    -0.6091450624     1.4980872263
   21      H       4.7877596826     1.0206027351     2.1394065650
   22      H       6.0965188329    -0.1483479823     1.7755122319
   23      H       6.5245280142     2.0347551138     0.6719926932
   24      H       6.1568641843     0.8153117061    -0.5888995859
   25      H       4.9115737438     2.8171260231    -1.0511422476
   26      H       4.2599659019     2.9521529358     0.6135315308
   27      H       2.0688146419    -1.7652727015    -0.5122878350
   28      H       0.4695880139     0.8142864794    -0.3430966673
   29      H      -1.7900612438     0.6480631823    -0.6251356120
   30      H      -3.0995265099    -2.1386489423    -1.2752140764
   31      H      -5.1453907075    -0.8843809491    -1.2820800826
   32      H      -6.4181135001     1.0276261519    -1.0870759032
   33      H       4.3277599349    -1.7855914218     2.5906368495
   34      H       2.8273671242    -2.0706471260     1.6644629543
   35      H       3.0154449862    -0.5496444698     2.6016648062
   36      H       5.3734040575    -1.2187538253    -1.0194099548
   37      H       4.1985426563    -2.4421500954    -0.4650441790
   38      H       5.6974353239    -2.1763813097     0.4691141972
   39      H       2.9577702344     2.5575774131    -2.3365164099
   40      H       1.9519389948     3.0709854182    -0.9344151141
   41      H       1.5735753285     1.6032312712    -1.9332622922
   42      H       0.4909162620    -2.9938632212    -1.0716499616
   43      H      -0.9400360702    -2.7671745685    -2.0914334885
   44      H      -1.1165950854    -3.1007235968    -0.3200358433
   45      H      -3.8317439175    -1.2024718109     1.5598425858
   46      H      -5.5841397680    -1.2620254154     1.8519020021
   47      H      -4.6412788151     0.2441876875     2.1991776408
   48      H      -7.0253579389     0.6959117997     1.9999122197
   49      O      -8.1389978708     1.6935401466     0.6974662064
 ----------------------------------------------------------------
 Molecular Point Group                 C1    NOp =  1
 Largest Abelian Subgroup              C1    NOp =  1
 Nuclear Repulsion Energy =        1528.47468075 hartrees
 There are       78 alpha and       78 beta electrons
 Requested basis set is 6-31+G(d)
 There are 161 shells and 455 basis functions
 A cutoff of  1.0D-12 yielded   8695 shell pairs
 There are     74027 function pairs
 Smallest overlap matrix eigenvalue = 2.90E-07
 Linear dependence detected in AO basis
 Tighter screening thresholds may be required for diffuse basis sets
 Use S2THRESH > 14 and THRESH = 14 in case of SCF convergence issues
 Number of orthogonalized atomic orbitals = 452
 Maximum deviation from orthogonality = 1.189E-10

 Scale SEOQF with 1.000000e-02/1.000000e-01/1.000000e-01

 Standard Electronic Orientation quadrupole field applied
 Nucleus-field energy     =     0.0000000144 hartrees
 Guess from superposition of atomic densities
 Warning:  Energy on first SCF cycle will be non-variational
 SAD guess density has 156.000000 electrons

 -----------------------------------------------------------------------
  General SCF calculation program by
  Eric Jon Sundstrom, Paul Horn, Yuezhi Mao, Dmitri Zuev, Alec White,
  David Stuck, Shaama M.S., Shane Yost, Joonho Lee, David Small,
  Daniel Levine, Susi Lehtola, Hugh Burton, Evgeny Epifanovsky,
  Bang C. Huynh
 -----------------------------------------------------------------------
 Exchange:     0.2220 Hartree-Fock + 1.0000 wB97X-D + LR-HF
 Correlation:  1.0000 wB97X-D
 Using SG-2 standard quadrature grid
 Dispersion:   Grimme D
 using 16 threads for integral computing
 -------------------------------------------------------
 OpenMP Integral computing Module                
 Release: version 1.0, May 2013, Q-Chem Inc. Pittsburgh 
 -------------------------------------------------------
 A restricted SCF calculation will be
 performed using DIIS
 SCF converges when DIIS error is below 1.0e-08
 ---------------------------------------
  Cycle       Energy         DIIS error
 ---------------------------------------
    1    -859.1487390148      3.25e-02  
    2    -853.5425296002      2.94e-03  
    3    -853.5131493192      3.61e-03  
    4    -853.7640722918      6.69e-04  
    5    -853.7739441967      2.13e-04  
    6    -853.7752780879      7.25e-05  
    7    -853.7754735017      2.48e-05  
    8    -853.7755345550      1.32e-05  
    9    -853.7755490710      5.76e-06  
   10    -853.7755514418      1.93e-06  
   11    -853.7755517342      9.06e-07  
   12    -853.7755517972      3.19e-07  
   13    -853.7755518064      1.44e-07  
   14    -853.7755518081      4.83e-08  
   15    -853.7755518084      2.32e-08  
   16    -853.7755518085      7.97e-09  Convergence criterion met
 ---------------------------------------
 SCF time:   CPU 1020.30s  wall 73.00s 
 SCF   energy in the final basis set =     -853.7755518085
 Total energy in the final basis set =     -853.7755518085

 --------------------------------------------------------------

                    Orbital Energies (a.u.)
 --------------------------------------------------------------

 Alpha MOs
 -- Occupied --
-19.2457 -10.3680 -10.3582 -10.3477 -10.3458 -10.3268 -10.3261 -10.3255
-10.3221 -10.3216 -10.3216 -10.3184 -10.3176 -10.3087 -10.3062 -10.3031
-10.3019 -10.3014 -10.3001 -10.2973 -10.2841  -1.1212  -0.9638  -0.9581
 -0.9390  -0.8962  -0.8945  -0.8702  -0.8422  -0.8103  -0.8050  -0.7902
 -0.7868  -0.7765  -0.7525  -0.7097  -0.6809  -0.6662  -0.6511  -0.6367
 -0.6195  -0.6081  -0.5882  -0.5677  -0.5636  -0.5528  -0.5454  -0.5375
 -0.5330  -0.5275  -0.5249  -0.5189  -0.5183  -0.5016  -0.4946  -0.4924
 -0.4903  -0.4852  -0.4796  -0.4768  -0.4695  -0.4644  -0.4612  -0.4596
 -0.4493  -0.4408  -0.4370  -0.4296  -0.4265  -0.4154  -0.4087  -0.3933
 -0.3856  -0.3789  -0.3398  -0.3197  -0.3012  -0.2688
 -- Virtual --
 -0.0424   0.0305   0.0442   0.0505   0.0579   0.0647   0.0685   0.0694
  0.0759   0.0811   0.0846   0.0890   0.0920   0.0940   0.0975   0.0997
  0.1020   0.1082   0.1111   0.1136   0.1185   0.1194   0.1203   0.1250
  0.1264   0.1287   0.1318   0.1384   0.1397   0.1424   0.1465   0.1498
  0.1558   0.1595   0.1612   0.1677   0.1707   0.1719   0.1734   0.1772
  0.1788   0.1854   0.1922   0.1947   0.1966   0.1999   0.2033   0.2050
  0.2088   0.2131   0.2136   0.2197   0.2236   0.2267   0.2288   0.2307
  0.2344   0.2367   0.2397   0.2424   0.2478   0.2491   0.2525   0.2550
  0.2577   0.2588   0.2637   0.2665   0.2674   0.2716   0.2748   0.2761
  0.2787   0.2811   0.2849   0.2877   0.2906   0.2928   0.2993   0.3013
  0.3040   0.3080   0.3116   0.3129   0.3155   0.3192   0.3227   0.3259
  0.3300   0.3347   0.3376   0.3404   0.3423   0.3470   0.3543   0.3553
  0.3595   0.3629   0.3684   0.3718   0.3759   0.3768   0.3799   0.3866
  0.3868   0.3898   0.3916   0.4006   0.4014   0.4051   0.4103   0.4151
  0.4190   0.4222   0.4273   0.4315   0.4411   0.4459   0.4485   0.4503
  0.4530   0.4697   0.4780   0.4804   0.4847   0.5015   0.5049   0.5110
  0.5149   0.5327   0.5448   0.5685   0.5783   0.5800   0.5876   0.5983
  0.7141   0.7216   0.7304   0.7454   0.7489   0.7527   0.7558   0.7633
  0.7670   0.7748   0.7826   0.7849   0.7901   0.7947   0.8037   0.8155
  0.8177   0.8244   0.8286   0.8338   0.8369   0.8408   0.8440   0.8482
  0.8511   0.8589   0.8633   0.8669   0.8799   0.8852   0.8903   0.8982
  0.9053   0.9068   0.9113   0.9187   0.9248   0.9289   0.9349   0.9489
  0.9546   0.9579   0.9691   0.9875   0.9995   1.0127   1.0162   1.0232
  1.0363   1.0480   1.0504   1.0565   1.0663   1.0666   1.0759   1.0792
  1.0812   1.0878   1.0929   1.1054   1.1173   1.1195   1.1267   1.1292
  1.1371   1.1411   1.1561   1.1661   1.1699   1.1750   1.1860   1.1913
  1.2021   1.2052   1.2141   1.2147   1.2288   1.2300   1.2326   1.2385
  1.2598   1.2639   1.2706   1.2768   1.2819   1.2897   1.3014   1.3084
  1.3264   1.3309   1.3443   1.3495   1.3695   1.3780   1.3938   1.4042
  1.4142   1.4285   1.4368   1.4434   1.4495   1.4614   1.4661   1.4675
  1.4811   1.4956   1.5188   1.5536   1.5615   1.5741   1.5756   1.6002
  1.6102   1.6255   1.6450   1.6478   1.6582   1.6689   1.7202   1.7274
  1.7563   1.7851   1.7932   1.7977   1.8112   1.8160   1.8374   1.8599
  1.8718   1.8833   1.8857   1.9096   1.9243   1.9305   1.9356   1.9392
  1.9487   1.9638   1.9716   1.9784   1.9870   2.0006   2.0095   2.0233
  2.0317   2.0581   2.0661   2.0914   2.1022   2.1048   2.1115   2.1208
  2.1458   2.1519   2.1638   2.1669   2.1796   2.1868   2.1976   2.2361
  2.2467   2.2509   2.2662   2.2729   2.2891   2.3070   2.3140   2.3215
  2.3266   2.3348   2.3450   2.3453   2.3525   2.3752   2.3902   2.3945
  2.4004   2.4063   2.4296   2.4387   2.4647   2.4780   2.4868   2.4953
  2.5066   2.5126   2.5409   2.5598   2.5630   2.5657   2.5894   2.6057
  2.6116   2.6267   2.6366   2.6468   2.6909   2.6949   2.7422   2.7689
  2.8082   2.8250   2.8459   2.8546   2.8703   2.8933   2.9308   2.9455
  2.9611   2.9980   3.0747   3.1118   3.1601   3.1758   3.2027   3.2408
  3.2553   4.2502   4.2879   4.3184   4.3330   4.3646   4.3953   4.4196
  4.4362   4.4532   4.4618   4.4799   4.4963   4.5178   4.5394   4.5529
  4.5862   4.6606   4.7025   4.7299   4.7756   4.8626
 --------------------------------------------------------------

          Ground-State Mulliken Net Atomic Charges

     Atom                 Charge (a.u.)
  ----------------------------------------
      1 C                    -0.281525
      2 C                    -0.201286
      3 C                    -0.420252
      4 C                    -0.453024
      5 C                    -0.059217
      6 C                     0.611448
      7 C                    -0.519762
      8 C                    -0.806338
      9 C                     0.683391
     10 C                    -0.090030
     11 C                     0.037752
     12 C                    -0.360626
     13 C                     0.241859
     14 C                    -0.050171
     15 C                     0.085084
     16 C                    -0.522582
     17 C                    -0.621501
     18 C                    -0.824229
     19 C                    -1.100727
     20 C                    -1.070359
     21 H                     0.216513
     22 H                     0.211720
     23 H                     0.208476
     24 H                     0.213022
     25 H                     0.212674
     26 H                     0.231054
     27 H                     0.178506
     28 H                     0.204795
     29 H                     0.208509
     30 H                     0.215225
     31 H                     0.221419
     32 H                     0.222577
     33 H                     0.221182
     34 H                     0.212178
     35 H                     0.230136
     36 H                     0.225256
     37 H                     0.214133
     38 H                     0.221302
     39 H                     0.222952
     40 H                     0.229798
     41 H                     0.231952
     42 H                     0.222382
     43 H                     0.245676
     44 H                     0.238322
     45 H                     0.232665
     46 H                     0.241950
     47 H                     0.249302
     48 H                     0.163960
     49 O                    -0.425542
  ----------------------------------------
  Sum of atomic charges =     0.000000

 -----------------------------------------------------------------
                    Cartesian Multipole Moments
 -----------------------------------------------------------------
    Charge (ESU x 10^10)
                -0.0000
    Dipole Moment (Debye)
         X       7.8213      Y      -3.6979      Z       0.6094
       Tot       8.6729
    Quadrupole Moments (Debye-Ang)
        XX    -190.7828     XY      28.0757     YY    -127.8587
        XZ      -1.3500     YZ       0.2062     ZZ    -130.8944
    Octopole Moments (Debye-Ang^2)
       XXX     670.3838    XXY    -190.1726    XYY      39.7641
       YYY     -12.6675    XXZ      -0.3178    XYZ       7.7766
       YYZ      -6.6085    XZZ     -14.4610    YZZ       2.6602
       ZZZ      14.2498
    Hexadecapole Moments (Debye-Ang^3)
      XXXX  -20923.3582   XXXY    1660.8492   XXYY   -3114.5108
      XYYY      90.2155   YYYY   -1636.4883   XXXZ     229.8139
      XXYZ    -125.2572   XYYZ      23.4945   YYYZ      13.4556
      XXZZ   -2626.4977   XYZZ       6.0583   YYZZ    -431.2937
      XZZZ     -76.1607   YZZZ       8.4907   ZZZZ   -1009.6127
 -----------------------------------------------------------------
 Calculating analytic gradient of the SCF energy
 Gradient of SCF Energy
            1           2           3           4           5           6
    1   0.0010830  -0.0004144  -0.0074873  -0.0027570   0.0050258   0.0022942
    2   0.0033400   0.0019933  -0.0056589  -0.0023897   0.0271140  -0.0184418
    3  -0.0079287  -0.0030021  -0.0023972   0.0075560   0.0018276   0.0040626
            7           8           9          10          11          12
    1  -0.0100225   0.0107760  -0.0187969   0.0243147  -0.0489831   0.0523538
    2  -0.0240810   0.0229200  -0.0101327   0.0182331  -0.0266232   0.0342523
    3  -0.0069851   0.0027056  -0.0029781  -0.0079523  -0.0010846  -0.0488697
           13          14          15          16          17          18
    1  -0.0239199   0.0137475  -0.0002188   0.0057126  -0.0043979  -0.0038570
    2  -0.0643984  -0.0005056  -0.0008809   0.0030516   0.0032958  -0.0003813
    3  -0.0147043  -0.0219445   0.0388264  -0.0025744   0.0032451   0.0087246
           19          20          21          22          23          24
    1  -0.0008582  -0.0045928  -0.0017305   0.0093423   0.0052144   0.0027949
    2   0.0037656   0.0045690   0.0092053  -0.0021251   0.0067004  -0.0063500
    3  -0.0000433  -0.0081785   0.0050329   0.0033308   0.0041591  -0.0048963
           25          26          27          28          29          30
    1   0.0107167  -0.0050830  -0.0029470   0.0041316   0.0029118  -0.0034684
    2   0.0011996   0.0029472   0.0081548  -0.0011885   0.0000328   0.0048840
    3  -0.0059315   0.0052107   0.0033315  -0.0003259   0.0010138   0.0213988
           31          32          33          34          35          36
    1  -0.0085012   0.0018463   0.0057620  -0.0050524  -0.0042849   0.0035347
    2   0.0317844  -0.0034082  -0.0054331  -0.0063379   0.0072564   0.0036654
    3   0.0496407  -0.0026052   0.0057814  -0.0030484   0.0055733  -0.0073291
           37          38          39          40          41          42
    1  -0.0047255   0.0064771   0.0012018  -0.0009192  -0.0023344   0.0044241
    2  -0.0061562  -0.0043772  -0.0032881   0.0060301  -0.0017916  -0.0057335
    3  -0.0029001   0.0045452  -0.0096268   0.0066812  -0.0092920  -0.0009056
           43          44          45          46          47          48
    1  -0.0020132  -0.0052657   0.0042186  -0.0073994   0.0023863  -0.0070467
    2  -0.0000372  -0.0028479  -0.0041937  -0.0075785   0.0090233   0.0061201
    3  -0.0096821   0.0088923   0.0053673   0.0010641   0.0048267  -0.0118698
           49
    1   0.0068069
    2  -0.0051987
    3  -0.0057421
 Max gradient component =       6.440E-02
 RMS gradient           =       1.367E-02
 Gradient time:  CPU 253.94 s  wall 20.60 s

 *****************************************************
             Starting BFGS Algorithm
 *****************************************************
            LIBOPT3 RUN PARAMETERS

  Geometry Optimization Coordinates :
	Delocalized Natural Internal Coordinates

  Step Length Selection Method :
	Eigenvector Following Algorithm

  Convergence Criteria :
	Max Gradient Component    	3.00000000e-04
	Max Displacement Component	1.20000000e-03
	Absolute Energy Difference	1.00000000e-06

  Initial Hessian :
	Approximate Hessian - Simple Internal Coordinate Scaled

  Type of Verification :
	Verify with final updated Hessian
 *****************************************************

	OPTIMIZATION CYCLE:	1

 Scaling Magnitude of Eigenvalues
 	Minimum: -25.00000000	 Maximum: 25.00000000
 141 Hessian Eigenvalues to form next step
   0.10000000   0.10000000   0.10000000   0.10000000   0.10000000
   0.10000000   0.10000000   0.10000000   0.10000000   0.10000000
   0.10000000   0.10000000   0.10000000   0.10000000   0.10000000
   0.10000001   0.10000001   0.10000008   0.10000009   0.10000028
   0.10000036   0.10000700   0.10002936   0.10004511   0.10011794
   0.10043560   0.10148168   0.11287121   0.11613888   0.11967673
   0.12010900   0.12090378   0.12300084   0.12466297   0.12775702
   0.13223308   0.13244037   0.13292278   0.13324364   0.13329849
   0.13564814   0.13846221   0.14022567   0.14047712   0.14138806
   0.14367754   0.14369659   0.14450418   0.14647849   0.14896674
   0.14943558   0.15798524   0.16442240   0.16853482   0.17000853
   0.17422648   0.18833704   0.19651657   0.19971744   0.19979604
   0.19992969   0.19999578   0.19999843   0.19999861   0.19999977
   0.19999981   0.19999998   0.19999999   0.19999999   0.20000000
   0.20000000   0.20000000   0.20000000   0.20000000   0.20000000
   0.20000000   0.20000000   0.20000000   0.20000000   0.20000000
   0.20000000   0.20000000   0.20000000   0.20000000   0.20000000
   0.20000000   0.20000000   0.20000000   0.20000000   0.20000000
   0.20000000   0.20000000   0.43194786   0.44603019   0.48172143
   0.50000000   0.50000000   0.50000000   0.50000000   0.50000000
   0.50000000   0.50000000   0.50000000   0.50000000   0.50000000
   0.50000000   0.50000000   0.50000000   0.50000000   0.50000000
   0.50000000   0.50000000   0.50000000   0.50000000   0.50000000
   0.50000000   0.50000000   0.50000000   0.50000000   0.50000000
   0.50000000   0.50000000   0.50000000   0.50000000   0.50000000
   0.50000000   0.50000000   0.50000000   0.50000000   0.50000000
   0.50000000   0.50000000   0.50000000   0.50000000   0.50000000
   0.50000000   0.50000000   0.50000000   0.50000000   0.50000000
   0.50000000

 Minimum Search taking a RFO step
 Searching for Lambda that minimizes along all modes
	Value of Lambda   -0.07502013
	Norm  of Stepsize  0.54931331
	RMS   of Stepsize  0.04626053

	Performing Iterative Coordinate Back-Transformation

	  Starting from Previous Position

	  iter:	0	rms: 2.1137303838e-01	maxdev: 8.3714435050e-01
	  iter:	1	rms: 3.6598658252e-02	maxdev: 1.2859726808e-01
	  iter:	2	rms: 8.3708700489e-04	maxdev: 3.0808085269e-03
	  iter:	3	rms: 3.3669604042e-07	maxdev: 1.0435224455e-06	 Success!

	Finished Iterative Coordinate Back-Transformation
 ----------------------------------------------------------------
             Standard Nuclear Orientation (Angstroms)
    I     Atom           X                Y                Z
 ----------------------------------------------------------------
    1      C       4.1701717248    -0.6127870472     0.7075170602
    2      C       5.2078902656     0.3569801263     1.3198533729
    3      C       5.6837875130     1.3706956145     0.2960624115
    4      C       4.4976980086     2.2360310957    -0.1183210504
    5      C       3.2649113155     1.4359927735    -0.4943116108
    6      C       3.1027717298     0.1439264520    -0.1140154885
    7      C       1.9102699914    -0.6840023594    -0.4467351912
    8      C       0.6319941912    -0.2660097533    -0.4958132019
    9      C      -0.5372677835    -1.1196351247    -0.7908817695
   10      C      -1.7661801853    -0.5351957823    -0.7543878500
   11      C      -3.0344792415    -1.2072574395    -1.0289121014
   12      C      -4.2296923382    -0.5403963247    -0.9931934753
   13      C      -5.1154868568    -0.0429284914     0.1290512311
   14      C      -6.2906179444     0.6059598453    -0.1311125965
   15      C      -7.2279418974     1.0977073158     0.8827372271
   16      C       3.5165945167    -1.3650883076     1.8880896488
   17      C       4.8762576061    -1.6477350528    -0.1960328322
   18      C       2.3234263735     2.2199206399    -1.3799764551
   19      C      -0.3561362690    -2.5840987768    -1.1289493672
   20      C      -4.6636044532    -0.3013371538     1.5535643602
   21      H       4.7497356254     0.9195535419     2.1543792395
   22      H       6.0509824807    -0.2180293497     1.7402074480
   23      H       6.4761051888     2.0152561650     0.7124520347
   24      H       6.1048145556     0.8566408067    -0.5825601690
   25      H       4.8172241770     2.8615214147    -0.9699876706
   26      H       4.2167634321     2.9256747262     0.6986010276
   27      H       2.1075082778    -1.7419324068    -0.5702080467
   28      H       0.4032187835     0.7674034212    -0.2589084064
   29      H      -1.8372806196     0.5227026791    -0.5106142542
   30      H      -3.0010881869    -2.2627271907    -1.2801541219
   31      H      -5.0198007043    -1.2461898242    -1.3039651004
   32      H      -6.5895062404     0.7884750607    -1.1600595317
   33      H       4.2866969041    -1.8846261744     2.4827312311
   34      H       2.7955957335    -2.1271813317     1.5518364651
   35      H       2.9806748961    -0.6647415482     2.5494875213
   36      H       5.3443446184    -1.1726809236    -1.0712911347
   37      H       4.1708674303    -2.4044601539    -0.5734457306
   38      H       5.6589157674    -2.1828629197     0.3675767730
   39      H       2.8957727749     2.6301218459    -2.2301975013
   40      H       1.8865960044     3.0707178036    -0.8315989640
   41      H       1.5283317943     1.6284002151    -1.8436540427
   42      H       0.6912005135    -2.9062617517    -1.1353994828
   43      H      -0.7596417354    -2.7934096881    -2.1325156227
   44      H      -0.8846301361    -3.2165682195    -0.3988301583
   45      H      -3.7060616484    -0.8329319214     1.6063848057
   46      H      -5.4097686923    -0.9113755302     2.0858682796
   47      H      -4.5389855226     0.6507140583     2.0927078098
   48      H      -6.9876733080     0.9499510377     1.9427774948
   49      O      -8.2676755059     1.6833742607     0.5987062700
 ----------------------------------------------------------------
 Molecular Point Group                 C1    NOp =  1
 Largest Abelian Subgroup              C1    NOp =  1
 Nuclear Repulsion Energy =        1531.46614171 hartrees
 There are       78 alpha and       78 beta electrons
 Applying Cartesian multipole field
    Component          Value
    ---------          -----
     (2,0,0)        1.00000E-12
     (0,2,0)        2.00000E-11
     (0,0,2)       -3.00000E-11
 Nucleus-field energy     = 1.5752623663e-08 hartrees
 Requested basis set is 6-31+G(d)
 There are 161 shells and 455 basis functions
 A cutoff of  1.0D-12 yielded   8724 shell pairs
 There are     74115 function pairs
 Smallest overlap matrix eigenvalue = 2.63E-07
 Linear dependence detected in AO basis
 Tighter screening thresholds may be required for diffuse basis sets
 Use S2THRESH > 14 and THRESH = 14 in case of SCF convergence issues
 Number of orthogonalized atomic orbitals = 452
 Maximum deviation from orthogonality = 1.620E-10
 Guess MOs from SCF MO coefficient file

 -----------------------------------------------------------------------
  General SCF calculation program by
  Eric Jon Sundstrom, Paul Horn, Yuezhi Mao, Dmitri Zuev, Alec White,
  David Stuck, Shaama M.S., Shane Yost, Joonho Lee, David Small,
  Daniel Levine, Susi Lehtola, Hugh Burton, Evgeny Epifanovsky,
  Bang C. Huynh
 -----------------------------------------------------------------------
 Exchange:     0.2220 Hartree-Fock + 1.0000 wB97X-D + LR-HF
 Correlation:  1.0000 wB97X-D
 Using SG-2 standard quadrature grid
 Dispersion:   Grimme D
 A restricted SCF calculation will be
 performed using DIIS
 SCF converges when DIIS error is below 1.0e-08
 ---------------------------------------
  Cycle       Energy         DIIS error
 ---------------------------------------
    1    -853.7290270127      1.55e-03  
    2    -853.8212668463      3.05e-04  
    3    -853.8274095510      1.74e-04  
    4    -853.8283814472      7.28e-05  
    5    -853.8286023520      4.25e-05  
    6    -853.8286573655      9.90e-06  
    7    -853.8286674462      5.91e-06  
    8    -853.8286700955      2.45e-06  
    9    -853.8286706896      1.09e-06  
   10    -853.8286708315      4.46e-07  
   11    -853.8286708519      1.79e-07  
   12    -853.8286708541      6.68e-08  
   13    -853.8286708544      2.16e-08  
   14    -853.8286708544      8.22e-09  Convergence criterion met
 ---------------------------------------
 SCF time:   CPU 917.13s  wall 69.00s 
 SCF   energy in the final basis set =     -853.8286708544
 Total energy in the final basis set =     -853.8286708544

 --------------------------------------------------------------

                    Orbital Energies (a.u.)
 --------------------------------------------------------------

 Alpha MOs
 -- Occupied --
-19.2567 -10.3773 -10.3609 -10.3408 -10.3398 -10.3228 -10.3197 -10.3191
-10.3174 -10.3163 -10.3149 -10.3138 -10.3135 -10.3127 -10.3046 -10.2990
-10.2985 -10.2985 -10.2985 -10.2963 -10.2933  -1.1264  -0.9658  -0.9509
 -0.9343  -0.8974  -0.8946  -0.8705  -0.8393  -0.8110  -0.8067  -0.7912
 -0.7882  -0.7774  -0.7491  -0.7115  -0.6839  -0.6686  -0.6501  -0.6355
 -0.6229  -0.6074  -0.5848  -0.5675  -0.5633  -0.5527  -0.5452  -0.5370
 -0.5331  -0.5257  -0.5238  -0.5192  -0.5177  -0.5008  -0.4995  -0.4931
 -0.4915  -0.4841  -0.4799  -0.4757  -0.4670  -0.4658  -0.4640  -0.4618
 -0.4482  -0.4409  -0.4366  -0.4291  -0.4250  -0.4178  -0.4088  -0.3947
 -0.3863  -0.3772  -0.3431  -0.3283  -0.3131  -0.2714
 -- Virtual --
 -0.0375   0.0231   0.0501   0.0547   0.0600   0.0652   0.0690   0.0707
  0.0769   0.0825   0.0856   0.0894   0.0942   0.0963   0.0979   0.1017
  0.1043   0.1096   0.1122   0.1137   0.1163   0.1190   0.1214   0.1249
  0.1263   0.1284   0.1327   0.1400   0.1426   0.1453   0.1479   0.1492
  0.1556   0.1593   0.1617   0.1685   0.1708   0.1744   0.1754   0.1760
  0.1796   0.1868   0.1946   0.1962   0.1991   0.1999   0.2023   0.2057
  0.2088   0.2134   0.2153   0.2226   0.2242   0.2271   0.2299   0.2326
  0.2354   0.2389   0.2418   0.2450   0.2484   0.2533   0.2544   0.2565
  0.2578   0.2603   0.2657   0.2669   0.2678   0.2726   0.2755   0.2772
  0.2824   0.2858   0.2862   0.2903   0.2922   0.2955   0.2976   0.3014
  0.3090   0.3096   0.3131   0.3173   0.3179   0.3254   0.3267   0.3300
  0.3332   0.3391   0.3406   0.3426   0.3445   0.3480   0.3519   0.3592
  0.3601   0.3669   0.3706   0.3715   0.3750   0.3776   0.3815   0.3886
  0.3926   0.3936   0.3959   0.3995   0.4059   0.4088   0.4125   0.4185
  0.4203   0.4251   0.4288   0.4410   0.4433   0.4469   0.4527   0.4562
  0.4569   0.4712   0.4778   0.4841   0.4887   0.5026   0.5053   0.5133
  0.5217   0.5352   0.5445   0.5667   0.5779   0.5905   0.5925   0.6110
  0.7174   0.7289   0.7326   0.7454   0.7478   0.7525   0.7577   0.7671
  0.7674   0.7749   0.7805   0.7867   0.7935   0.7965   0.8071   0.8153
  0.8189   0.8258   0.8271   0.8313   0.8318   0.8435   0.8478   0.8502
  0.8539   0.8605   0.8682   0.8702   0.8794   0.8846   0.8883   0.8952
  0.9031   0.9067   0.9139   0.9158   0.9214   0.9286   0.9314   0.9381
  0.9532   0.9597   0.9705   0.9938   0.9987   1.0095   1.0133   1.0216
  1.0421   1.0446   1.0526   1.0634   1.0705   1.0723   1.0769   1.0814
  1.0829   1.0932   1.1036   1.1125   1.1171   1.1220   1.1311   1.1334
  1.1367   1.1442   1.1636   1.1742   1.1812   1.1869   1.1898   1.1918
  1.2076   1.2104   1.2169   1.2239   1.2357   1.2365   1.2408   1.2445
  1.2641   1.2710   1.2786   1.2800   1.2890   1.2934   1.3039   1.3190
  1.3256   1.3332   1.3400   1.3432   1.3598   1.3644   1.3901   1.4065
  1.4089   1.4211   1.4270   1.4360   1.4392   1.4587   1.4627   1.4696
  1.4839   1.5021   1.5358   1.5501   1.5625   1.5740   1.5820   1.6067
  1.6114   1.6267   1.6490   1.6536   1.6615   1.6759   1.7195   1.7395
  1.7658   1.7723   1.7925   1.7983   1.8052   1.8258   1.8425   1.8719
  1.8830   1.8914   1.9051   1.9083   1.9187   1.9194   1.9299   1.9485
  1.9536   1.9564   1.9808   1.9831   1.9906   2.0060   2.0125   2.0233
  2.0318   2.0438   2.0717   2.0946   2.0993   2.1115   2.1187   2.1235
  2.1378   2.1488   2.1589   2.1701   2.1960   2.2065   2.2095   2.2247
  2.2428   2.2529   2.2762   2.2872   2.2946   2.3189   2.3226   2.3318
  2.3329   2.3353   2.3503   2.3587   2.3597   2.3734   2.3892   2.3986
  2.4055   2.4161   2.4332   2.4453   2.4755   2.4909   2.4935   2.5000
  2.5172   2.5286   2.5537   2.5678   2.5727   2.5763   2.5856   2.6007
  2.6172   2.6401   2.6443   2.6586   2.6878   2.6980   2.7221   2.7615
  2.7783   2.8306   2.8431   2.8572   2.8709   2.8899   2.9380   2.9577
  2.9910   3.0142   3.0999   3.1174   3.1376   3.1727   3.2264   3.2310
  3.2941   4.2513   4.2974   4.3114   4.3412   4.3752   4.4025   4.4310
  4.4377   4.4506   4.4546   4.4716   4.5064   4.5289   4.5479   4.5604
  4.5935   4.6640   4.7036   4.7307   4.7866   4.8783
 --------------------------------------------------------------

          Ground-State Mulliken Net Atomic Charges

     Atom                 Charge (a.u.)
  ----------------------------------------
      1 C                    -0.337684
      2 C                    -0.193810
      3 C                    -0.421172
      4 C                    -0.472159
      5 C                    -0.002740
      6 C                     0.640229
      7 C                    -0.461862
      8 C                    -0.913899
      9 C                     0.631260
     10 C                    -0.082101
     11 C                     0.115812
     12 C                    -0.293098
     13 C                     0.151908
     14 C                     0.041881
     15 C                     0.096665
     16 C                    -0.513554
     17 C                    -0.616874
     18 C                    -0.841507
     19 C                    -1.132643
     20 C                    -1.096239
     21 H                     0.218154
     22 H                     0.212056
     23 H                     0.209320
     24 H                     0.213592
     25 H                     0.211395
     26 H                     0.231121
     27 H                     0.166985
     28 H                     0.201825
     29 H                     0.201287
     30 H                     0.214242
     31 H                     0.198271
     32 H                     0.225704
     33 H                     0.222369
     34 H                     0.214751
     35 H                     0.232401
     36 H                     0.227152
     37 H                     0.214498
     38 H                     0.222878
     39 H                     0.221521
     40 H                     0.230675
     41 H                     0.232400
     42 H                     0.220296
     43 H                     0.245665
     44 H                     0.240015
     45 H                     0.239475
     46 H                     0.243797
     47 H                     0.246717
     48 H                     0.163852
     49 O                    -0.420827
  ----------------------------------------
  Sum of atomic charges =     0.000000

 -----------------------------------------------------------------
                    Cartesian Multipole Moments
 -----------------------------------------------------------------
    Charge (ESU x 10^10)
                -0.0000
    Dipole Moment (Debye)
         X       7.2961      Y      -3.0358      Z       0.7364
       Tot       7.9367
    Quadrupole Moments (Debye-Ang)
        XX    -189.1747     XY      23.9217     YY    -127.4197
        XZ      -2.1381     YZ       1.2675     ZZ    -130.6099
    Octopole Moments (Debye-Ang^2)
       XXX     669.1557    XXY    -171.0987    XYY      38.1190
       YYY      -7.8771    XXZ       5.3889    XYZ       2.0453
       YYZ      -6.4245    XZZ     -14.2226    YZZ       3.9596
       ZZZ      12.8221
    Hexadecapole Moments (Debye-Ang^3)
      XXXX  -21021.0940   XXXY    1598.5109   XXYY   -3094.0998
      XYYY     125.8339   YYYY   -1661.9083   XXXZ     167.4318
      XXYZ     -92.8943   XYYZ      14.6195   YYYZ     -11.5164
      XXZZ   -2603.4046   XYZZ      17.1167   YYZZ    -426.7257
      XZZZ     -73.7386   YZZZ     -19.7284   ZZZZ    -965.9886
 -----------------------------------------------------------------
 Calculating analytic gradient of the SCF energy
 Gradient of SCF Energy
            1           2           3           4           5           6
    1  -0.0002355   0.0000156  -0.0030437  -0.0030044  -0.0004414   0.0048084
    2   0.0021489   0.0004080  -0.0043495   0.0005951   0.0042765   0.0007415
    3  -0.0064328   0.0005533  -0.0029365   0.0044047   0.0050841  -0.0021161
            7           8           9          10          11          12
    1  -0.0070263   0.0069494  -0.0076300   0.0078396  -0.0196475   0.0501822
    2  -0.0118606   0.0119064  -0.0079179   0.0132828  -0.0363938   0.0609207
    3  -0.0038022   0.0005163  -0.0020428  -0.0070358  -0.0088977  -0.0305617
           13          14          15          16          17          18
    1  -0.0203714  -0.0077848   0.0091445   0.0029507  -0.0020418  -0.0028575
    2  -0.0437234   0.0081824  -0.0024225   0.0012995   0.0011471   0.0012031
    3   0.0039632  -0.0017306   0.0117020  -0.0007200   0.0021187   0.0069217
           19          20          21          22          23          24
    1   0.0023235  -0.0031927  -0.0005922   0.0038830   0.0019903   0.0008421
    2   0.0013952  -0.0001091   0.0048733  -0.0011429   0.0036382  -0.0032106
    3   0.0004795  -0.0046906   0.0018651   0.0016372   0.0017735  -0.0019506
           25          26          27          28          29          30
    1   0.0056876  -0.0029545  -0.0015377   0.0010816  -0.0003126   0.0011476
    2   0.0001031   0.0006107   0.0012869  -0.0012640  -0.0008341  -0.0020881
    3  -0.0030683   0.0023509   0.0032173  -0.0002748   0.0004010   0.0163767
           31          32          33          34          35          36
    1  -0.0072793  -0.0005558   0.0023067  -0.0025224  -0.0017202   0.0014125
    2   0.0021471  -0.0017357  -0.0027679  -0.0027495   0.0030391   0.0017430
    3   0.0229032   0.0005518   0.0021360  -0.0018193   0.0025093  -0.0030813
           37          38          39          40          41          42
    1  -0.0023907   0.0029401   0.0004724   0.0003131  -0.0000057   0.0032772
    2  -0.0024052  -0.0020470  -0.0025036   0.0026899  -0.0005889  -0.0023819
    3  -0.0012981   0.0017710  -0.0053454   0.0029026  -0.0052077  -0.0001643
           43          44          45          46          47          48
    1  -0.0002968  -0.0013772   0.0027340  -0.0028943   0.0015621  -0.0039037
    2   0.0006046  -0.0013416  -0.0013336  -0.0034544   0.0039578   0.0024290
    3  -0.0040993   0.0038756   0.0031360   0.0006198   0.0001950  -0.0051259
           49
    1  -0.0082442
    2   0.0039958
    3  -0.0015638
 Max gradient component =       6.092E-02
 RMS gradient           =       9.828E-03
 Gradient time:  CPU 250.49 s  wall 18.97 s

     Step 1	:
        Energy is -853.8286708544
                            Maximum         Tolerance       Converged?
         Gradient           1.72972907e-02	3.00000000e-04	false
         Displacement       1.60023860e-01	1.20000000e-03	false
         Energy change      5.31190459e-02	1.00000000e-06	false


	OPTIMIZATION CYCLE:	2

 Scaling Magnitude of Eigenvalues
 	Minimum: -25.00000000	 Maximum: 25.00000000
 141 Hessian Eigenvalues to form next step
   0.07585337   0.10000000   0.10000000   0.10000000   0.10000000
   0.10000000   0.10000000   0.10000000   0.10000000   0.10000000
   0.10000000   0.10000000   0.10000000   0.10000000   0.10000000
   0.10000001   0.10000008   0.10000008   0.10000028   0.10000036
   0.10000686   0.10002833   0.10004501   0.10008537   0.10013269
   0.10043563   0.10147287   0.10729347   0.11288012   0.11614058
   0.12012899   0.12090439   0.12300125   0.12461902   0.12776133
   0.13223282   0.13244043   0.13292276   0.13323963   0.13328082
   0.13564810   0.13829182   0.14022582   0.14047743   0.14121866
   0.14367570   0.14369802   0.14441362   0.14648234   0.14881435
   0.14939099   0.15787824   0.16415963   0.16725267   0.17000898
   0.17427810   0.18829907   0.19576456   0.19655512   0.19971787
   0.19979694   0.19993060   0.19999587   0.19999846   0.19999887
   0.19999978   0.19999982   0.19999998   0.19999999   0.20000000
   0.20000000   0.20000000   0.20000000   0.20000000   0.20000000
   0.20000000   0.20000000   0.20000000   0.20000000   0.20000000
   0.20000000   0.20000000   0.20000000   0.20000000   0.20000000
   0.20000000   0.20000000   0.20000000   0.20000000   0.20000000
   0.20000000   0.24084050   0.43194040   0.44454125   0.47135908
   0.48201059   0.50000000   0.50000000   0.50000000   0.50000000
   0.50000000   0.50000000   0.50000000   0.50000000   0.50000000
   0.50000000   0.50000000   0.50000000   0.50000000   0.50000000
   0.50000000   0.50000000   0.50000000   0.50000000   0.50000000
   0.50000000   0.50000000   0.50000000   0.50000000   0.50000000
   0.50000000   0.50000000   0.50000000   0.50000000   0.50000000
   0.50000000   0.50000000   0.50000000   0.50000000   0.50000000
   0.50000000   0.50000000   0.50000000   0.50000000   0.50000000
   0.50000000   0.50000000   0.50000000   0.50000000   0.50000000
   0.57216861

 Minimum Search taking a RFO step
 Searching for Lambda that minimizes along all modes
	Value of Lambda   -0.03664743
	Norm  of Stepsize  0.55032676
	RMS   of Stepsize  0.04634587

	Performing Iterative Coordinate Back-Transformation

	  Starting from Previous Position

	  iter:	0	rms: 1.8326230477e-01	maxdev: 6.6439459931e-01
	  iter:	1	rms: 2.6931521174e-02	maxdev: 9.3262298008e-02
	  iter:	2	rms: 4.4328788211e-04	maxdev: 1.8350016645e-03
	  iter:	3	rms: 8.0720112591e-08	maxdev: 3.1403274563e-07	 Success!

	Finished Iterative Coordinate Back-Transformation
 ----------------------------------------------------------------
             Standard Nuclear Orientation (Angstroms)
    I     Atom           X                Y                Z
 ----------------------------------------------------------------
    1      C       4.1687554397    -0.6341860215     0.6844471365
    2      C       5.1785912229     0.3422169363     1.3146284208
    3      C       5.6227495346     1.4121202563     0.3274785567
    4      C       4.4085739347     2.2517570618    -0.0576370707
    5      C       3.2021031114     1.4214613191    -0.4455384121
    6      C       3.0823503208     0.1252271660    -0.1018108612
    7      C       1.9169958905    -0.7062594524    -0.4486112211
    8      C       0.6208532892    -0.3392665990    -0.4520948761
    9      C      -0.5362883317    -1.1737585620    -0.7667692142
   10      C      -1.7685166813    -0.6107431729    -0.6673600015
   11      C      -3.0157095250    -1.2713685568    -0.9566529491
   12      C      -4.2434771208    -0.6792368582    -0.8893461597
   13      C      -5.0764718764    -0.0140165079     0.1611279263
   14      C      -6.2625084324     0.5325173742    -0.1785852372
   15      C      -7.1831110959     1.1458592401     0.7641570975
   16      C       3.5388101661    -1.4414051116     1.8370172368
   17      C       4.9002557320    -1.6153776141    -0.2538234188
   18      C       2.2263903656     2.1920174460    -1.2983248539
   19      C      -0.3791339793    -2.6111483050    -1.2017871980
   20      C      -4.5287821380    -0.0280361038     1.5768522290
   21      H       4.7047160766     0.8439048016     2.1690220300
   22      H       6.0298428196    -0.2256232024     1.7074395554
   23      H       6.3970104934     2.0560938328     0.7583562685
   24      H       6.0502939749     0.9490357063    -0.5684146658
   25      H       4.6721647691     2.9178077759    -0.8879613759
   26      H       4.1214723729     2.9045986268     0.7799775238
   27      H       2.1523233266    -1.7510694152    -0.6368102285
   28      H       0.3660694739     0.6734889204    -0.1501365951
   29      H      -1.8459478210     0.4308717972    -0.3594143395
   30      H      -2.9659454541    -2.3091835547    -1.2840258242
   31      H      -4.9129031348    -1.4689050796    -1.2916768369
   32      H      -6.5906383619     0.5309802845    -1.2156384097
   33      H       4.3243927277    -1.9510720268     2.4055728671
   34      H       2.8414563213    -2.2079610882     1.4853991095
   35      H       2.9896489737    -0.7853668526     2.5196331491
   36      H       5.3508613684    -1.1025941185    -1.1079865825
   37      H       4.2206435995    -2.3751028950    -0.6526953568
   38      H       5.6931829599    -2.1414711966     0.2894323907
   39      H       2.7708629186     2.6598260033    -2.1289413109
   40      H       1.7547804018     3.0039994944    -0.7327475568
   41      H       1.4507903315     1.5734142513    -1.7483043384
   42      H       0.6630926011    -2.9227805045    -1.2565761083
   43      H      -0.8115929557    -2.7624529030    -2.1960647111
   44      H      -0.8853889484    -3.2905553902    -0.5103511406
   45      H      -3.5617018835    -0.5311740609     1.6169926837
   46      H      -5.2083356003    -0.5506630034     2.2553607116
   47      H      -4.3932235314     0.9883557397     1.9586506908
   48      H      -6.8814664822     1.1654516942     1.8302230313
   49      O      -8.2412882388     1.6450427809     0.4388770235
 ----------------------------------------------------------------
 Molecular Point Group                 C1    NOp =  1
 Largest Abelian Subgroup              C1    NOp =  1
 Nuclear Repulsion Energy =        1538.71156790 hartrees
 There are       78 alpha and       78 beta electrons
 Applying Cartesian multipole field
    Component          Value
    ---------          -----
     (2,0,0)        1.00000E-12
     (0,2,0)        2.00000E-11
     (0,0,2)       -3.00000E-11
 Nucleus-field energy     = 1.6810810851e-08 hartrees
 Requested basis set is 6-31+G(d)
 There are 161 shells and 455 basis functions
 A cutoff of  1.0D-12 yielded   8753 shell pairs
 There are     74348 function pairs
 Smallest overlap matrix eigenvalue = 2.43E-07
 Linear dependence detected in AO basis
 Tighter screening thresholds may be required for diffuse basis sets
 Use S2THRESH > 14 and THRESH = 14 in case of SCF convergence issues
 Number of orthogonalized atomic orbitals = 452
 Maximum deviation from orthogonality = 1.663E-10
 Guess MOs from SCF MO coefficient file

 -----------------------------------------------------------------------
  General SCF calculation program by
  Eric Jon Sundstrom, Paul Horn, Yuezhi Mao, Dmitri Zuev, Alec White,
  David Stuck, Shaama M.S., Shane Yost, Joonho Lee, David Small,
  Daniel Levine, Susi Lehtola, Hugh Burton, Evgeny Epifanovsky,
  Bang C. Huynh
 -----------------------------------------------------------------------
 Exchange:     0.2220 Hartree-Fock + 1.0000 wB97X-D + LR-HF
 Correlation:  1.0000 wB97X-D
 Using SG-2 standard quadrature grid
 Dispersion:   Grimme D
 A restricted SCF calculation will be
 performed using DIIS
 SCF converges when DIIS error is below 1.0e-08
 ---------------------------------------
  Cycle       Energy         DIIS error
 ---------------------------------------
    1    -853.7806273857      1.34e-03  
    2    -853.8490898088      2.55e-04  
    3    -853.8536048093      1.42e-04  
    4    -853.8541776383      7.80e-05  
    5    -853.8543759670      3.03e-05  
    6    -853.8544105624      8.60e-06  
    7    -853.8544174893      5.09e-06  
    8    -853.8544195509      1.89e-06  
    9    -853.8544199622      8.97e-07  
   10    -853.8544200591      3.86e-07  
   11    -853.8544200737      1.43e-07  
   12    -853.8544200751      4.75e-08  
   13    -853.8544200753      1.56e-08  
   14    -853.8544200753      5.99e-09  Convergence criterion met
 ---------------------------------------
 SCF time:   CPU 905.48s  wall 63.00s 
 SCF   energy in the final basis set =     -853.8544200753
 Total energy in the final basis set =     -853.8544200753

 --------------------------------------------------------------

                    Orbital Energies (a.u.)
 --------------------------------------------------------------

 Alpha MOs
 -- Occupied --
-19.2615 -10.3792 -10.3549 -10.3350 -10.3309 -10.3200 -10.3175 -10.3161
-10.3151 -10.3131 -10.3108 -10.3092 -10.3091 -10.3085 -10.3016 -10.3012
-10.2970 -10.2957 -10.2944 -10.2926 -10.2897  -1.1375  -0.9668  -0.9517
 -0.9355  -0.8985  -0.8949  -0.8714  -0.8382  -0.8164  -0.8057  -0.7914
 -0.7892  -0.7780  -0.7484  -0.7139  -0.6859  -0.6690  -0.6482  -0.6355
 -0.6245  -0.6060  -0.5836  -0.5727  -0.5636  -0.5531  -0.5450  -0.5383
 -0.5300  -0.5250  -0.5225  -0.5197  -0.5160  -0.5050  -0.4995  -0.4930
 -0.4901  -0.4839  -0.4805  -0.4770  -0.4738  -0.4663  -0.4641  -0.4607
 -0.4475  -0.4406  -0.4360  -0.4294  -0.4244  -0.4197  -0.4082  -0.3958
 -0.3874  -0.3768  -0.3496  -0.3317  -0.3172  -0.2690
 -- Virtual --
 -0.0341   0.0243   0.0529   0.0595   0.0647   0.0658   0.0698   0.0722
  0.0773   0.0833   0.0865   0.0897   0.0957   0.0978   0.0988   0.1028
  0.1052   0.1107   0.1126   0.1150   0.1165   0.1195   0.1228   0.1244
  0.1278   0.1296   0.1337   0.1408   0.1453   0.1470   0.1497   0.1516
  0.1553   0.1613   0.1630   0.1692   0.1727   0.1753   0.1763   0.1779
  0.1818   0.1885   0.1959   0.1979   0.2000   0.2006   0.2040   0.2084
  0.2110   0.2137   0.2179   0.2249   0.2254   0.2272   0.2325   0.2341
  0.2355   0.2419   0.2429   0.2467   0.2502   0.2539   0.2560   0.2583
  0.2599   0.2629   0.2667   0.2678   0.2700   0.2754   0.2775   0.2803
  0.2856   0.2858   0.2872   0.2917   0.2966   0.2983   0.3010   0.3063
  0.3123   0.3126   0.3175   0.3196   0.3226   0.3283   0.3302   0.3348
  0.3373   0.3405   0.3434   0.3449   0.3465   0.3485   0.3554   0.3593
  0.3623   0.3695   0.3707   0.3720   0.3802   0.3806   0.3863   0.3930
  0.3949   0.3981   0.4010   0.4036   0.4075   0.4129   0.4181   0.4208
  0.4220   0.4281   0.4333   0.4449   0.4472   0.4519   0.4542   0.4613
  0.4653   0.4733   0.4834   0.4927   0.4952   0.5056   0.5104   0.5182
  0.5271   0.5397   0.5471   0.5658   0.5808   0.5969   0.6001   0.6158
  0.7213   0.7327   0.7373   0.7409   0.7502   0.7527   0.7597   0.7676
  0.7693   0.7779   0.7840   0.7897   0.7962   0.7994   0.8110   0.8128
  0.8193   0.8247   0.8302   0.8324   0.8336   0.8460   0.8504   0.8516
  0.8581   0.8632   0.8681   0.8711   0.8793   0.8887   0.8919   0.8970
  0.9030   0.9076   0.9148   0.9189   0.9235   0.9339   0.9388   0.9422
  0.9569   0.9602   0.9728   0.9916   0.9958   1.0038   1.0074   1.0232
  1.0412   1.0512   1.0604   1.0647   1.0718   1.0768   1.0780   1.0845
  1.0868   1.0963   1.1037   1.1122   1.1189   1.1246   1.1328   1.1385
  1.1405   1.1475   1.1726   1.1756   1.1856   1.1908   1.1933   1.1968
  1.2078   1.2125   1.2263   1.2340   1.2401   1.2445   1.2465   1.2517
  1.2680   1.2749   1.2809   1.2863   1.2905   1.3021   1.3115   1.3196
  1.3275   1.3295   1.3385   1.3429   1.3478   1.3638   1.3972   1.4092
  1.4162   1.4227   1.4275   1.4329   1.4409   1.4557   1.4688   1.4791
  1.4918   1.5097   1.5487   1.5559   1.5661   1.5790   1.5881   1.6128
  1.6231   1.6400   1.6487   1.6575   1.6697   1.6832   1.7374   1.7443
  1.7690   1.7740   1.7909   1.7948   1.8100   1.8332   1.8481   1.8820
  1.8852   1.8925   1.9050   1.9161   1.9179   1.9211   1.9324   1.9471
  1.9593   1.9621   1.9863   1.9877   1.9968   2.0103   2.0183   2.0282
  2.0373   2.0529   2.0745   2.0961   2.1023   2.1173   2.1208   2.1283
  2.1383   2.1594   2.1630   2.1757   2.2020   2.2041   2.2147   2.2366
  2.2461   2.2574   2.2790   2.2920   2.3057   2.3228   2.3374   2.3426
  2.3430   2.3444   2.3634   2.3682   2.3771   2.3842   2.4007   2.4110
  2.4233   2.4328   2.4376   2.4557   2.4801   2.4852   2.4980   2.5108
  2.5290   2.5525   2.5572   2.5748   2.5840   2.5908   2.5999   2.6147
  2.6296   2.6519   2.6582   2.6702   2.6994   2.7038   2.7337   2.7536
  2.7856   2.8362   2.8439   2.8661   2.8776   2.8987   2.9402   2.9685
  2.9990   3.0503   3.1131   3.1298   3.1678   3.2159   3.2452   3.2529
  3.3157   4.2521   4.3096   4.3243   4.3530   4.3824   4.4064   4.4363
  4.4405   4.4566   4.4580   4.4794   4.5144   4.5290   4.5514   4.5656
  4.6000   4.6694   4.7137   4.7514   4.7952   4.8854
 --------------------------------------------------------------

          Ground-State Mulliken Net Atomic Charges

     Atom                 Charge (a.u.)
  ----------------------------------------
      1 C                    -0.374342
      2 C                    -0.187577
      3 C                    -0.424325
      4 C                    -0.491809
      5 C                     0.088839
      6 C                     0.534050
      7 C                    -0.423469
      8 C                    -1.034505
      9 C                     0.650493
     10 C                    -0.160366
     11 C                     0.118765
     12 C                    -0.205352
     13 C                     0.256518
     14 C                    -0.033775
     15 C                     0.142499
     16 C                    -0.502654
     17 C                    -0.612691
     18 C                    -0.826477
     19 C                    -1.130519
     20 C                    -1.090754
     21 H                     0.219732
     22 H                     0.212446
     23 H                     0.210351
     24 H                     0.214501
     25 H                     0.210599
     26 H                     0.231589
     27 H                     0.170406
     28 H                     0.197948
     29 H                     0.197168
     30 H                     0.209307
     31 H                     0.186751
     32 H                     0.227530
     33 H                     0.223268
     34 H                     0.219570
     35 H                     0.234319
     36 H                     0.228946
     37 H                     0.216574
     38 H                     0.223685
     39 H                     0.220605
     40 H                     0.231643
     41 H                     0.234185
     42 H                     0.219753
     43 H                     0.245291
     44 H                     0.241267
     45 H                     0.241856
     46 H                     0.245973
     47 H                     0.246251
     48 H                     0.160539
     49 O                    -0.414604
  ----------------------------------------
  Sum of atomic charges =     0.000000

 -----------------------------------------------------------------
                    Cartesian Multipole Moments
 -----------------------------------------------------------------
    Charge (ESU x 10^10)
                -0.0000
    Dipole Moment (Debye)
         X       6.6836      Y      -2.4562      Z       0.8238
       Tot       7.1681
    Quadrupole Moments (Debye-Ang)
        XX    -185.3285     XY      20.4395     YY    -127.0163
        XZ      -3.0000     YZ       2.4756     ZZ    -129.9709
    Octopole Moments (Debye-Ang^2)
       XXX     633.1319    XXY    -148.9205    XYY      33.0989
       YYY      -1.2760    XXZ      15.7279    XYZ      -4.7661
       YYZ      -6.4012    XZZ     -17.0384    YZZ       5.2598
       ZZZ      10.8080
    Hexadecapole Moments (Debye-Ang^3)
      XXXX  -20491.7548   XXXY    1457.0269   XXYY   -3017.9862
      XYYY     132.8086   YYYY   -1680.0389   XXXZ      18.8022
      XXYZ     -47.3507   XYYZ      -6.1341   YYYZ     -31.8227
      XXZZ   -2541.6041   XYZZ      21.6033   YYZZ    -422.6035
      XZZZ    -105.4918   YZZZ     -43.1006   ZZZZ    -920.3449
 -----------------------------------------------------------------
 Calculating analytic gradient of the SCF energy
 Gradient of SCF Energy
            1           2           3           4           5           6
    1   0.0003225   0.0002605   0.0018472  -0.0019153  -0.0027631   0.0032027
    2   0.0012797  -0.0011671  -0.0016859   0.0031175  -0.0063258   0.0053331
    3  -0.0029408   0.0030023  -0.0023818   0.0018153   0.0045769  -0.0047509
            7           8           9          10          11          12
    1   0.0009306   0.0004055  -0.0008376  -0.0003884  -0.0110697   0.0346119
    2   0.0010074   0.0017912  -0.0007601   0.0015449  -0.0258858   0.0658486
    3  -0.0003282  -0.0025543  -0.0001113  -0.0093787  -0.0069289  -0.0146906
           13          14          15          16          17          18
    1  -0.0295541   0.0011490  -0.0028099   0.0003605   0.0003787  -0.0022959
    2  -0.0190442   0.0029812   0.0009292  -0.0002658  -0.0005305   0.0017979
    3   0.0109767   0.0034977  -0.0047708   0.0009943   0.0005127   0.0042449
           19          20          21          22          23          24
    1  -0.0013690  -0.0008200   0.0000395  -0.0007657  -0.0007274  -0.0008560
    2  -0.0003847  -0.0028649   0.0007515   0.0002149   0.0006413  -0.0003883
    3   0.0000434   0.0010614  -0.0013424  -0.0000720  -0.0006764   0.0007730
           25          26          27          28          29          30
    1   0.0012530  -0.0007061   0.0004340  -0.0003861  -0.0009558   0.0005395
    2  -0.0011845  -0.0010638   0.0001047  -0.0007801  -0.0009296  -0.0052434
    3   0.0000737  -0.0003542   0.0031196  -0.0002146   0.0002032   0.0121437
           31          32          33          34          35          36
    1   0.0049390  -0.0005545  -0.0007661   0.0001159   0.0005409  -0.0005159
    2  -0.0154649  -0.0001820  -0.0001403   0.0004098  -0.0005604  -0.0004575
    3   0.0067869   0.0002454  -0.0008545   0.0004054  -0.0004501   0.0003977
           37          38          39          40          41          42
    1   0.0003436  -0.0004260  -0.0004489   0.0014637   0.0010510  -0.0014433
    2   0.0006155   0.0003301  -0.0018974  -0.0001545  -0.0001951   0.0000173
    3   0.0002394  -0.0004865  -0.0011193  -0.0006573  -0.0009218   0.0001126
           43          44          45          46          47          48
    1   0.0005276   0.0003499  -0.0000545   0.0005691   0.0002788  -0.0006545
    2   0.0002833   0.0006629   0.0006134   0.0005762  -0.0008149   0.0008099
    3   0.0005764  -0.0005358   0.0004230  -0.0004258  -0.0008615  -0.0005041
           49
    1   0.0071688
    2  -0.0032904
    3   0.0020868
 Max gradient component =       6.585E-02
 RMS gradient           =       7.790E-03
 Gradient time:  CPU 252.15 s  wall 19.04 s

     Step 2	:
        Energy is -853.8544200753
                            Maximum         Tolerance       Converged?
         Gradient           1.40332627e-02	3.00000000e-04	false
         Displacement       1.59813656e-01	1.20000000e-03	false
         Energy change      2.57492209e-02	1.00000000e-06	false


	OPTIMIZATION CYCLE:	3

 Scaling Magnitude of Eigenvalues
 	Minimum: -25.00000000	 Maximum: 25.00000000
 141 Hessian Eigenvalues to form next step
   0.04101460   0.10000000   0.10000000   0.10000000   0.10000000
   0.10000000   0.10000000   0.10000000   0.10000000   0.10000000
   0.10000000   0.10000000   0.10000000   0.10000000   0.10000001
   0.10000008   0.10000008   0.10000028   0.10000036   0.10000644
   0.10002771   0.10004424   0.10006055   0.10012960   0.10019483
   0.10043612   0.10147374   0.10693522   0.11287863   0.11614083
   0.12012980   0.12090672   0.12300258   0.12466980   0.12776280
   0.13223295   0.13244088   0.13292294   0.13324271   0.13329076
   0.13565028   0.13837697   0.14022651   0.14047554   0.14132515
   0.14369402   0.14371165   0.14444253   0.14648535   0.14893157
   0.14944075   0.15794265   0.16438264   0.17000349   0.17419376
   0.18823113   0.19009392   0.19575825   0.19660315   0.19972251
   0.19979849   0.19993127   0.19999590   0.19999848   0.19999907
   0.19999978   0.19999982   0.19999998   0.19999999   0.20000000
   0.20000000   0.20000000   0.20000000   0.20000000   0.20000000
   0.20000000   0.20000000   0.20000000   0.20000000   0.20000000
   0.20000000   0.20000000   0.20000000   0.20000000   0.20000000
   0.20000000   0.20000000   0.20000000   0.20000000   0.20000000
   0.22857585   0.26304530   0.43188932   0.44957519   0.47972967
   0.48323938   0.50000000   0.50000000   0.50000000   0.50000000
   0.50000000   0.50000000   0.50000000   0.50000000   0.50000000
   0.50000000   0.50000000   0.50000000   0.50000000   0.50000000
   0.50000000   0.50000000   0.50000000   0.50000000   0.50000000
   0.50000000   0.50000000   0.50000000   0.50000000   0.50000000
   0.50000000   0.50000000   0.50000000   0.50000000   0.50000000
   0.50000000   0.50000000   0.50000000   0.50000000   0.50000000
   0.50000000   0.50000000   0.50000000   0.50000000   0.50000000
   0.50000000   0.50000000   0.50000000   0.50000000   0.55499822
   0.56676115

 Minimum Search taking a RFO step
 Searching for Lambda that minimizes along all modes
	Value of Lambda   -0.02373461
	Norm  of Stepsize  0.57687512
	RMS   of Stepsize  0.04858165

	Performing Iterative Coordinate Back-Transformation

	  Starting from Previous Position

	  iter:	0	rms: 1.9394147784e-01	maxdev: 7.5815690978e-01
	  iter:	1	rms: 2.8730667055e-02	maxdev: 9.9959908490e-02
	  iter:	2	rms: 5.7729296569e-04	maxdev: 3.1888820095e-03
	  iter:	3	rms: 2.0123833866e-07	maxdev: 9.7941010793e-07	 Success!

	Finished Iterative Coordinate Back-Transformation
 ----------------------------------------------------------------
             Standard Nuclear Orientation (Angstroms)
    I     Atom           X                Y                Z
 ----------------------------------------------------------------
    1      C       4.0952014973    -0.6348064301     0.6940707579
    2      C       5.0844756825     0.3437256998     1.3442798556
    3      C       5.5352329295     1.4389885367     0.3852872841
    4      C       4.3192946737     2.2680195237    -0.0139251362
    5      C       3.1281350807     1.4287357809    -0.4278592340
    6      C       3.0126979647     0.1254728587    -0.0944708324
    7      C       1.8655007909    -0.7120413202    -0.4546070903
    8      C       0.5597472102    -0.3844419487    -0.4294789335
    9      C      -0.5658927793    -1.2316638465    -0.7703684329
   10      C      -1.8202899251    -0.7201666162    -0.6378077480
   11      C      -3.0464619702    -1.3927668035    -0.9557904062
   12      C      -4.3061571005    -0.8708457298    -0.8775415002
   13      C      -4.9726365726    -0.0395845693     0.1401565644
   14      C      -6.1819936534     0.4890738384    -0.1351892624
   15      C      -6.9755628093     1.2433348885     0.8200303993
   16      C       3.4562190703    -1.4593645936     1.8261190188
   17      C       4.8508489930    -1.5938799435    -0.2462446823
   18      C       2.1626414673     2.2013968940    -1.2881118437
   19      C      -0.3387110544    -2.6357800714    -1.2735535871
   20      C      -4.2418863451     0.1165830985     1.4617339834
   21      H       4.5900213818     0.8139865526     2.2003832808
   22      H       5.9320659935    -0.2219552307     1.7382256352
   23      H       6.2965513421     2.0756497777     0.8394334048
   24      H       5.9817350759     0.9997608904    -0.5101394209
   25      H       4.5683871970     2.9515908435    -0.8295229171
   26      H       4.0179492305     2.9076704784     0.8259401355
   27      H       2.1210049077    -1.7462101200    -0.6906327201
   28      H       0.2768620616     0.6079328876    -0.0804380423
   29      H      -1.9232009130     0.3044199985    -0.2792770316
   30      H      -2.9709792270    -2.4063620907    -1.3504173253
   31      H      -4.9752531852    -1.6384906813    -1.3149141464
   32      H      -6.6301167872     0.3597070109    -1.1181990612
   33      H       4.2387772288    -1.9616906633     2.3991343340
   34      H       2.7745085507    -2.2272212199     1.4583294513
   35      H       2.8914397213    -0.8190437327     2.5053163632
   36      H       5.3078290419    -1.0660051445    -1.0836015584
   37      H       4.1890624902    -2.3549206363    -0.6640598488
   38      H       5.6386313040    -2.1150088342     0.3025085420
   39      H       2.7150881532     2.6995111165    -2.0909915765
   40      H       1.6662013811     2.9953753583    -0.7227368448
   41      H       1.3985444902     1.5790731697    -1.7463528468
   42      H       0.7190756292    -2.8783692822    -1.3423757954
   43      H      -0.7658973578    -2.7678493641    -2.2693172743
   44      H      -0.8015734172    -3.3761711627    -0.6206834261
   45      H      -3.2975650931    -0.4228666207     1.4274362337
   46      H      -4.8305750541    -0.2809512708     2.2882498669
   47      H      -4.0300807661     1.1625272949     1.6893423477
   48      H      -6.5258212600     1.3746777674     1.8324903820
   49      O      -8.0654723450     1.7365140134     0.5746994684
 ----------------------------------------------------------------
 Molecular Point Group                 C1    NOp =  1
 Largest Abelian Subgroup              C1    NOp =  1
 Nuclear Repulsion Energy =        1547.80926254 hartrees
 There are       78 alpha and       78 beta electrons
 Applying Cartesian multipole field
    Component          Value
    ---------          -----
     (2,0,0)        1.00000E-12
     (0,2,0)        2.00000E-11
     (0,0,2)       -3.00000E-11
 Nucleus-field energy     = 1.7387984366e-08 hartrees
 Requested basis set is 6-31+G(d)
 There are 161 shells and 455 basis functions
 A cutoff of  1.0D-12 yielded   8832 shell pairs
 There are     74797 function pairs
 Smallest overlap matrix eigenvalue = 2.24E-07
 Linear dependence detected in AO basis
 Tighter screening thresholds may be required for diffuse basis sets
 Use S2THRESH > 14 and THRESH = 14 in case of SCF convergence issues
 Number of orthogonalized atomic orbitals = 452
 Maximum deviation from orthogonality = 1.446E-10
 Guess MOs from SCF MO coefficient file

 -----------------------------------------------------------------------
  General SCF calculation program by
  Eric Jon Sundstrom, Paul Horn, Yuezhi Mao, Dmitri Zuev, Alec White,
  David Stuck, Shaama M.S., Shane Yost, Joonho Lee, David Small,
  Daniel Levine, Susi Lehtola, Hugh Burton, Evgeny Epifanovsky,
  Bang C. Huynh
 -----------------------------------------------------------------------
 Exchange:     0.2220 Hartree-Fock + 1.0000 wB97X-D + LR-HF
 Correlation:  1.0000 wB97X-D
 Using SG-2 standard quadrature grid
 Dispersion:   Grimme D
 A restricted SCF calculation will be
 performed using DIIS
 SCF converges when DIIS error is below 1.0e-08
 ---------------------------------------
  Cycle       Energy         DIIS error
 ---------------------------------------
    1    -853.7959298062      1.43e-03  
    2    -853.8678751677      2.49e-04  
    3    -853.8724888700      1.21e-04  
    4    -853.8730172700      6.99e-05  
    5    -853.8732247993      2.50e-05  
    6    -853.8732535737      9.18e-06  
    7    -853.8732621016      6.01e-06  
    8    -853.8732645579      1.93e-06  
    9    -853.8732650327      1.02e-06  
   10    -853.8732651389      4.14e-07  
   11    -853.8732651510      1.48e-07  
   12    -853.8732651526      4.55e-08  
   13    -853.8732651528      1.64e-08  
   14    -853.8732651529      6.58e-09  Convergence criterion met
 ---------------------------------------
 SCF time:   CPU 924.21s  wall 65.00s 
 SCF   energy in the final basis set =     -853.8732651529
 Total energy in the final basis set =     -853.8732651529

 --------------------------------------------------------------

                    Orbital Energies (a.u.)
 --------------------------------------------------------------

 Alpha MOs
 -- Occupied --
-19.2632 -10.3811 -10.3498 -10.3347 -10.3270 -10.3193 -10.3179 -10.3160
-10.3157 -10.3126 -10.3107 -10.3088 -10.3083 -10.3073 -10.3036 -10.3010
-10.2968 -10.2949 -10.2938 -10.2915 -10.2886  -1.1344  -0.9676  -0.9539
 -0.9372  -0.8990  -0.8952  -0.8715  -0.8384  -0.8178  -0.8069  -0.7922
 -0.7904  -0.7789  -0.7493  -0.7156  -0.6873  -0.6695  -0.6476  -0.6361
 -0.6254  -0.6076  -0.5836  -0.5754  -0.5650  -0.5528  -0.5450  -0.5391
 -0.5289  -0.5249  -0.5223  -0.5202  -0.5153  -0.5045  -0.5002  -0.4942
 -0.4910  -0.4843  -0.4835  -0.4790  -0.4727  -0.4671  -0.4625  -0.4594
 -0.4476  -0.4412  -0.4368  -0.4306  -0.4270  -0.4226  -0.4082  -0.3977
 -0.3893  -0.3784  -0.3535  -0.3323  -0.3178  -0.2683
 -- Virtual --
 -0.0351   0.0246   0.0535   0.0610   0.0650   0.0685   0.0701   0.0735
[...]
    8    -853.8952726060      1.80e-08  
    9    -853.8952726060      5.53e-09  Convergence criterion met
 ---------------------------------------
 SCF time:   CPU 571.48s  wall 40.00s 
 SCF   energy in the final basis set =     -853.8952726060
 Total energy in the final basis set =     -853.8952726060

 --------------------------------------------------------------

                    Orbital Energies (a.u.)
 --------------------------------------------------------------

 Alpha MOs
 -- Occupied --
-19.2658 -10.3841 -10.3482 -10.3342 -10.3261 -10.3195 -10.3185 -10.3146
-10.3136 -10.3135 -10.3129 -10.3121 -10.3092 -10.3082 -10.3069 -10.3013
-10.2969 -10.2952 -10.2938 -10.2917 -10.2884  -1.1391  -0.9650  -0.9536
 -0.9367  -0.8968  -0.8929  -0.8691  -0.8372  -0.8214  -0.8066  -0.7892
 -0.7875  -0.7777  -0.7504  -0.7142  -0.6850  -0.6667  -0.6500  -0.6355
 -0.6308  -0.6057  -0.5842  -0.5767  -0.5671  -0.5505  -0.5441  -0.5365
 -0.5295  -0.5280  -0.5198  -0.5181  -0.5140  -0.5037  -0.4994  -0.4947
 -0.4929  -0.4871  -0.4822  -0.4773  -0.4769  -0.4673  -0.4600  -0.4558
 -0.4479  -0.4397  -0.4357  -0.4309  -0.4272  -0.4262  -0.4065  -0.4002
 -0.3900  -0.3781  -0.3537  -0.3349  -0.3166  -0.2715
 -- Virtual --
 -0.0320   0.0314   0.0539   0.0619   0.0631   0.0712   0.0726   0.0771
  0.0804   0.0835   0.0870   0.0906   0.0959   0.0978   0.1009   0.1053
  0.1075   0.1091   0.1107   0.1149   0.1174   0.1223   0.1237   0.1267
  0.1322   0.1339   0.1374   0.1408   0.1424   0.1455   0.1522   0.1553
  0.1577   0.1617   0.1652   0.1720   0.1725   0.1785   0.1792   0.1839
  0.1874   0.1895   0.1930   0.1939   0.1988   0.2022   0.2073   0.2097
  0.2109   0.2170   0.2207   0.2237   0.2261   0.2298   0.2320   0.2351
  0.2376   0.2433   0.2470   0.2493   0.2519   0.2557   0.2564   0.2601
  0.2609   0.2668   0.2677   0.2710   0.2716   0.2766   0.2809   0.2834
  0.2866   0.2884   0.2896   0.2964   0.2985   0.3005   0.3041   0.3061
  0.3088   0.3112   0.3135   0.3193   0.3259   0.3273   0.3297   0.3334
  0.3400   0.3409   0.3456   0.3459   0.3464   0.3548   0.3594   0.3614
  0.3647   0.3694   0.3713   0.3746   0.3786   0.3841   0.3853   0.3913
  0.3965   0.4001   0.4030   0.4093   0.4124   0.4204   0.4208   0.4240
  0.4288   0.4336   0.4382   0.4405   0.4437   0.4514   0.4553   0.4660
  0.4678   0.4761   0.4873   0.4940   0.4985   0.5072   0.5193   0.5223
  0.5377   0.5414   0.5691   0.5803   0.5939   0.5997   0.6028   0.6150
  0.7159   0.7279   0.7354   0.7444   0.7498   0.7539   0.7599   0.7625
  0.7707   0.7734   0.7784   0.7842   0.7910   0.7986   0.8085   0.8117
  0.8195   0.8219   0.8258   0.8351   0.8423   0.8459   0.8497   0.8550
  0.8598   0.8663   0.8693   0.8718   0.8800   0.8835   0.8953   0.8983
  0.9039   0.9120   0.9177   0.9204   0.9275   0.9360   0.9497   0.9566
  0.9596   0.9764   0.9811   0.9916   0.9966   1.0044   1.0168   1.0173
  1.0408   1.0524   1.0597   1.0653   1.0752   1.0814   1.0895   1.0918
  1.0967   1.0992   1.1137   1.1192   1.1227   1.1299   1.1373   1.1424
  1.1492   1.1614   1.1691   1.1737   1.1831   1.1885   1.2001   1.2063
  1.2157   1.2217   1.2297   1.2312   1.2471   1.2484   1.2583   1.2618
  1.2636   1.2760   1.2875   1.2993   1.3072   1.3143   1.3208   1.3347
  1.3381   1.3441   1.3482   1.3530   1.3579   1.3817   1.3884   1.3997
  1.4079   1.4143   1.4360   1.4446   1.4538   1.4657   1.4751   1.4856
  1.4976   1.5235   1.5256   1.5355   1.5552   1.5796   1.5882   1.6099
  1.6353   1.6432   1.6581   1.6592   1.6625   1.6904   1.7216   1.7387
  1.7434   1.7497   1.7759   1.8055   1.8192   1.8396   1.8446   1.8669
  1.8917   1.8966   1.9101   1.9173   1.9306   1.9318   1.9500   1.9630
  1.9686   1.9840   1.9852   1.9941   1.9977   2.0157   2.0241   2.0406
  2.0540   2.0590   2.0650   2.0727   2.0964   2.1010   2.1106   2.1168
  2.1408   2.1469   2.1723   2.1799   2.1932   2.2110   2.2191   2.2402
  2.2489   2.2552   2.2700   2.2751   2.2900   2.3094   2.3283   2.3398
  2.3488   2.3676   2.3769   2.3795   2.3862   2.4002   2.4085   2.4140
  2.4182   2.4362   2.4593   2.4669   2.4805   2.4850   2.5117   2.5260
  2.5309   2.5482   2.5627   2.5691   2.5747   2.5858   2.5952   2.6255
  2.6270   2.6529   2.6558   2.6659   2.6954   2.7013   2.7160   2.7823
  2.7884   2.8356   2.8408   2.8684   2.8732   2.9037   2.9371   2.9727
  3.0105   3.0867   3.1111   3.1325   3.1668   3.2261   3.2556   3.2811
  3.3250   4.2478   4.2966   4.3148   4.3587   4.3826   4.3882   4.4258
  4.4437   4.4474   4.4633   4.4872   4.5151   4.5326   4.5525   4.5758
  4.6006   4.6657   4.7072   4.7681   4.7969   4.8746
 --------------------------------------------------------------

          Ground-State Mulliken Net Atomic Charges

     Atom                 Charge (a.u.)
  ----------------------------------------
      1 C                    -0.402134
      2 C                    -0.218325
      3 C                    -0.447404
      4 C                    -0.557014
      5 C                     0.260525
      6 C                     0.509815
      7 C                     0.007494
      8 C                    -1.438839
      9 C                     0.319827
     10 C                     0.045974
     11 C                    -0.168012
     12 C                    -0.457228
     13 C                     1.057373
     14 C                    -0.429361
     15 C                     0.071162
     16 C                    -0.503906
     17 C                    -0.594319
     18 C                    -0.670647
     19 C                    -1.038421
     20 C                    -1.021214
     21 H                     0.220415
     22 H                     0.212790
     23 H                     0.210848
     24 H                     0.213965
     25 H                     0.210808
     26 H                     0.229329
     27 H                     0.183700
     28 H                     0.195406
     29 H                     0.179591
     30 H                     0.196624
     31 H                     0.199156
     32 H                     0.220938
     33 H                     0.222261
     34 H                     0.228367
     35 H                     0.235413
     36 H                     0.226001
     37 H                     0.216939
     38 H                     0.222775
     39 H                     0.215205
     40 H                     0.230508
     41 H                     0.244613
     42 H                     0.217322
     43 H                     0.238835
     44 H                     0.246658
     45 H                     0.243522
     46 H                     0.219107
     47 H                     0.240979
     48 H                     0.157876
     49 O                    -0.405295
  ----------------------------------------
  Sum of atomic charges =     0.000000

 -----------------------------------------------------------------
                    Cartesian Multipole Moments
 -----------------------------------------------------------------
    Charge (ESU x 10^10)
                -0.0000
    Dipole Moment (Debye)
         X       6.4962      Y      -0.9418      Z      -0.1867
       Tot       6.5668
    Quadrupole Moments (Debye-Ang)
        XX    -188.2745     XY      10.7790     YY    -124.7736
        XZ       3.4117     YZ       4.9811     ZZ    -130.5980
    Octopole Moments (Debye-Ang^2)
       XXX     653.8566    XXY     -80.1786    XYY       6.9110
       YYY      29.6002    XXZ     -33.3769    XYZ     -10.9816
       YYZ     -14.0447    XZZ      -4.9289    YZZ      11.7076
       ZZZ      -8.9739
    Hexadecapole Moments (Debye-Ang^3)
      XXXX  -20256.6120   XXXY     949.3855   XXYY   -2741.0595
      XYYY      32.1405   YYYY   -1766.7728   XXXZ     374.0561
      XXYZ     -28.1842   XYYZ      -1.1769   YYYZ     -98.8093
      XXZZ   -2526.5344   XYZZ       4.1421   YYZZ    -420.0397
      XZZZ     -68.9931   YZZZ    -111.4336   ZZZZ    -823.1324
 -----------------------------------------------------------------
 Calculating analytic gradient of the SCF energy
 Gradient of SCF Energy
            1           2           3           4           5           6
    1   0.0001391  -0.0000233  -0.0000341  -0.0000629  -0.0000039   0.0001215
    2  -0.0000938  -0.0001357   0.0001786  -0.0000940   0.0000328   0.0000440
    3  -0.0001270   0.0000238  -0.0000939   0.0000625   0.0000151  -0.0000319
            7           8           9          10          11          12
    1  -0.0001531   0.0000823  -0.0000546   0.0000737  -0.0000566   0.0000011
    2  -0.0000720   0.0000913  -0.0001148   0.0000841  -0.0000183  -0.0000217
    3  -0.0000108  -0.0000790   0.0000305  -0.0001167   0.0000289  -0.0000912
           13          14          15          16          17          18
    1   0.0000710  -0.0000080  -0.0000954  -0.0000538  -0.0001352  -0.0000421
    2   0.0001012  -0.0000715   0.0000297  -0.0000438   0.0001340   0.0000012
    3   0.0001128   0.0000121  -0.0000397   0.0000777   0.0001291   0.0000424
           19          20          21          22          23          24
    1  -0.0000281   0.0000244   0.0000109  -0.0000093  -0.0000081   0.0000239
    2   0.0000539  -0.0001340   0.0000035   0.0000328  -0.0000260   0.0000025
    3   0.0000330  -0.0001612  -0.0000035  -0.0000034   0.0000142   0.0000333
           25          26          27          28          29          30
    1   0.0000167   0.0000358   0.0000307  -0.0000118  -0.0000127   0.0000068
    2  -0.0000115   0.0000445  -0.0000142  -0.0000302  -0.0000280  -0.0000191
    3  -0.0000207  -0.0000448   0.0000160   0.0000584   0.0000646   0.0000119
           31          32          33          34          35          36
    1   0.0000179   0.0000134  -0.0000025  -0.0000075   0.0000281   0.0000345
    2   0.0000192   0.0000057   0.0000033   0.0000386   0.0000110  -0.0000120
    3   0.0000153  -0.0000029  -0.0000084   0.0000056  -0.0000065   0.0000189
           37          38          39          40          41          42
    1   0.0000179  -0.0000005   0.0000072   0.0000241   0.0000174   0.0000025
    2  -0.0000008  -0.0000382  -0.0000073  -0.0000043   0.0000004   0.0000034
    3  -0.0000246  -0.0000017  -0.0000110  -0.0000219   0.0000005  -0.0000115
           43          44          45          46          47          48
    1  -0.0000027   0.0000235  -0.0000376   0.0000027  -0.0000380   0.0000427
    2  -0.0000165  -0.0000063   0.0000295   0.0000184   0.0000102   0.0000411
    3   0.0000089   0.0000067   0.0000253   0.0000336   0.0000248   0.0000148
           49
    1   0.0000120
    2  -0.0000006
    3  -0.0000082
 Max gradient component =       1.786E-04
 RMS gradient           =       5.545E-05
 Gradient time:  CPU 261.20 s  wall 19.76 s

     Step 42	:
        Energy is -853.8952726060
                            Maximum         Tolerance       Converged?
         Gradient           9.70562294e-05	3.00000000e-04	true
         Displacement       4.06122557e-03	1.20000000e-03	false
         Energy change      9.69367875e-07	1.00000000e-06	true

	 Optimization Converged in 42 cycles

 *****************************************************
             End of BFGS Algorithm
 *****************************************************
		----------------------------------
		   Verification of Optimization
		----------------------------------

 Eigenvalues of Hessian in Optimization Verification
   0.00199114   0.00342489   0.00544326   0.00776058   0.01445622
   0.02163521   0.02845468   0.02980975   0.04131532   0.06703625
   0.09986875   0.10000308   0.10000997   0.10001410   0.10001826
   0.10002238   0.10003297   0.10010338   0.10011374   0.10014898
   0.10024742   0.10041526   0.10065913   0.10108466   0.10113628
   0.10222452   0.10314691   0.10519878   0.10949488   0.11498476
   0.11532124   0.11989835   0.12265045   0.12302439   0.12661932
   0.12813264   0.13214434   0.13232020   0.13262852   0.13295807
   0.13327427   0.13564672   0.13941822   0.14015843   0.14136347
   0.14186535   0.14331716   0.14387967   0.14554076   0.14790141
   0.14966969   0.15734366   0.16306965   0.17010779   0.17392380
   0.18336180   0.18827190   0.19294060   0.19686356   0.19898526
   0.19932323   0.19947293   0.19972029   0.19988151   0.19992294
   0.19994057   0.19997709   0.19998680   0.19999967   0.20000492
   0.20001102   0.20001348   0.20003828   0.20006754   0.20008206
   0.20017002   0.20022833   0.20034184   0.20045693   0.20096384
   0.20132433   0.20182297   0.20367853   0.20559800   0.20724943
   0.20959464   0.23878920   0.24637445   0.30901595   0.34253094
   0.36003947   0.41769573   0.43712205   0.45818024   0.46868258
   0.47850411   0.48490779   0.48697357   0.49889813   0.49959068
   0.49977173   0.49985409   0.49992393   0.49995781   0.49996730
   0.49999105   0.49999869   0.50000000   0.50000000   0.50000000
   0.50000015   0.50000025   0.50000035   0.50000110   0.50000144
   0.50000199   0.50000216   0.50000396   0.50000423   0.50000872
   0.50001475   0.50002676   0.50003697   0.50004785   0.50008197
   0.50013497   0.50020227   0.50026324   0.50107049   0.50152174
   0.50173139   0.50234673   0.50453748   0.50539763   0.51118674
   0.52746516   0.54641771   0.60121121   0.60890299   0.73086957
   0.79859153

 Found a minimum
		---------------------------------
		       End of Verification
		---------------------------------

 Final energy is -853.895272606002

	******************************
	**  OPTIMIZATION CONVERGED  **
	******************************
 ----------------------------------------------------------------
             Standard Nuclear Orientation (Angstroms)
    I     Atom           X                Y                Z
 ----------------------------------------------------------------
    1      C       4.1270968352    -0.6923583711     0.6555210289
    2      C       5.0450453552     0.2936557078     1.4007170417
    3      C       5.4624791954     1.4773589532     0.5385328051
    4      C       4.2273470770     2.2563433535     0.1005873220
    5      C       3.0833798007     1.3846920845    -0.3727322021
    6      C       3.0219707460     0.0621509028    -0.1048659675
    7      C       1.8969517261    -0.7886903703    -0.5445081706
    8      C       0.5964311533    -0.5161419948    -0.3407298960
    9      C      -0.5606178259    -1.3160909706    -0.7425604969
   10      C      -1.7936569128    -0.8338974040    -0.4362105767
   11      C      -3.0378371200    -1.4916517283    -0.7794171877
   12      C      -4.3251016663    -1.1521116410    -0.5226803414
   13      C      -4.9107495458    -0.0416561320     0.2335224416
   14      C      -6.2571551298     0.1135779299     0.1457084997
   15      C      -7.0651899788     1.1461695369     0.7946755318
   16      C       3.5019505237    -1.6320511914     1.7030902205
   17      C       4.9570284601    -1.5372484501    -0.3316444119
   18      C       2.0421131964     2.1463914047    -1.1568259281
   19      C      -0.3701193681    -2.6273859805    -1.4678265552
   20      C      -4.0324307704     0.8520744318     1.0717945701
   21      H       4.5139817154     0.6735695026     2.2853909396
   22      H       5.9249264771    -0.2479909825     1.7714693571
   23      H       6.1442028657     2.1317848968     1.0936920240
   24      H       6.0116010980     1.1279681173    -0.3445628116
   25      H       4.4904265792     2.9649416171    -0.6952056551
   26      H       3.8631957455     2.8760111221     0.9357443785
   27      H       2.1774702416    -1.7291141528    -1.0167910252
   28      H       0.3522932290     0.4025565731     0.1921781497
   29      H      -1.8326950014     0.1150161119     0.0854802668
   30      H      -2.9274518513    -2.4034342483    -1.3634315111
   31      H      -5.0724684289    -1.8151808347    -0.9549881470
   32      H      -6.8368031461    -0.5693546647    -0.4725044323
   33      H       4.2915159159    -2.0963240215     2.3066744361
   34      H       2.9185117606    -2.4356123972     1.2412177824
   35      H       2.8359339316    -1.0792558487     2.3752979318
   36      H       5.4615749108    -0.9107456798    -1.0738658730
   37      H       4.3334531674    -2.2548995042    -0.8762506143
   38      H       5.7193396594    -2.1112365343     0.2096562397
   39      H       2.5310273468     2.8372467318    -1.8543227732
   40      H       1.4206621384     2.7619299923    -0.4918175713
   41      H       1.3769424767     1.4975722456    -1.7296394343
   42      H       0.6783555390    -2.8295340275    -1.6905568146
   43      H      -0.9083067634    -2.6330784567    -2.4217759695
   44      H      -0.7457103059    -3.4650679085    -0.8698586833
   45      H      -3.3632262119     0.2495576526     1.6933985052
   46      H      -4.6054201267     1.5017344488     1.7336064477
   47      H      -3.4141096190     1.4930289571     0.4339908671
   48      H      -6.5487593549     1.8793863618     1.4423806172
   49      O      -8.2717968147     1.2306652117     0.6458044296
 ----------------------------------------------------------------
 Molecular Point Group                 C1    NOp =  1
 Largest Abelian Subgroup              C1    NOp =  1
 Nuclear Repulsion Energy =        1548.01211079 hartrees
 There are       78 alpha and       78 beta electrons

Z-matrix Print:
$molecule
0 1
C 
C  1 1.350792
C  1 1.477459 2 122.645942
H  3 1.089100 1 115.478807 2 132.718376 0
C  3 1.344307 1 125.084980 2 -50.902285 0
H  5 1.089771 3 117.501560 1 -0.150022 0
C  5 1.462925 3 127.781621 1 -179.666055 0
C  7 1.358950 5 117.496098 3 -179.500862 0
H  8 1.083569 7 116.869363 5 0.096653 0
C  8 1.448591 7 124.387417 5 179.054305 0
H  10 1.088396 8 114.860157 7 -3.096786 0
C  10 1.355821 8 131.062703 7 178.523672 0
H  12 1.088627 10 115.092269 8 176.739550 0
C  12 1.465584 10 131.824220 8 -2.969345 0
C  14 1.358167 12 116.703928 10 171.228188 0
H  15 1.088382 14 119.536162 12 -0.445085 0
C  15 1.462985 14 126.836075 12 -179.463160 0
H  17 1.106268 15 118.013674 14 -1.022120 0
O  17 1.218689 15 122.792107 14 178.693068 0
C  14 1.507613 12 120.215788 10 -9.574136 0
H  20 1.090124 14 112.620712 12 -168.362014 0
H  20 1.094190 14 110.227797 12 -48.005807 0
H  20 1.095417 14 110.608029 12 71.266292 0
C  2 1.509710 1 124.445237 3 -0.898567 0
H  24 1.091574 2 113.137743 1 -16.299370 0
H  24 1.096731 2 109.916732 1 -137.369742 0
H  24 1.098784 2 111.001697 1 105.059984 0
C  7 1.510561 5 120.452166 3 0.605612 0
H  28 1.090767 7 112.342430 5 -3.906166 0
H  28 1.095307 7 111.143912 5 -123.851855 0
H  28 1.095603 7 111.004558 5 116.385352 0
C  2 1.514090 1 122.412425 3 178.937089 0
H  32 1.097547 2 109.033422 1 140.072263 0
H  32 1.101854 2 108.119869 1 -105.809644 0
C  32 1.524521 2 114.064722 1 16.528409 0
H  35 1.096003 32 110.141880 2 -165.960983 0
H  35 1.097026 32 109.695957 2 76.941579 0
C  35 1.522750 32 109.740265 2 -44.273922 0
H  38 1.097738 35 110.797205 32 -176.891117 0
H  38 1.099550 35 108.624712 32 -60.102370 0
C  1 1.539083 2 123.045781 3 178.663977 0
C  41 1.539880 1 110.105785 2 135.702422 0
H  42 1.095188 41 112.155200 1 65.489082 0
H  42 1.095912 41 110.865925 1 -55.019390 0
H  42 1.096940 41 109.900795 1 -174.670122 0
C  41 1.541792 1 109.805703 2 -104.714863 0
H  46 1.094516 41 111.632594 1 62.077092 0
H  46 1.095657 41 111.766590 1 -58.327584 0
H  46 1.097081 41 110.171416 1 -177.573368 0
$end

 -----------------------------------------------------------------------
                  END OF GEOMETRY OPTIMIZER USING LIBOPT3               
 -----------------------------------------------------------------------
 Total job time:  3205.28s(wall), 44181.16s(cpu) 
 Tue Nov 15 15:21:46 2022

        *************************************************************
        *                                                           *
        *  Thank you very much for using Q-Chem.  Have a nice day.  *
        *                                                           *
        *************************************************************


